# vtk DataFile Version 2.0
VTK from Matlab
ASCII
DATASET STRUCTURED_GRID
DIMENSIONS 49964 1 1
POINTS 49964 float
30.00 100.00 11.00 26.00 93.00 12.00 26.00 94.00 12.00 26.00 95.00 12.00 28.00 95.00 12.00 26.00 96.00 12.00 28.00 96.00 12.00 30.00 96.00 12.00 31.00 96.00 12.00 28.00 97.00 12.00 26.00 98.00 12.00 28.00 98.00 12.00 31.00 98.00 12.00 24.00 99.00 12.00 25.00 99.00 12.00 26.00 99.00 12.00 28.00 99.00 12.00 23.00 100.00 12.00 24.00 100.00 12.00 25.00 100.00 12.00 26.00 100.00 12.00 27.00 100.00 12.00 28.00 100.00 12.00 29.00 100.00 12.00 30.00 100.00 12.00 36.00 100.00 12.00 25.00 101.00 12.00 30.00 101.00 12.00 31.00 101.00 12.00 32.00 101.00 12.00 34.00 101.00 12.00 36.00 101.00 12.00 23.00 102.00 12.00 24.00 102.00 12.00 25.00 102.00 12.00 30.00 102.00 12.00 29.00 84.00 13.00 29.00 85.00 13.00 29.00 86.00 13.00 30.00 86.00 13.00 28.00 87.00 13.00 29.00 87.00 13.00 30.00 87.00 13.00 27.00 88.00 13.00 28.00 88.00 13.00 29.00 88.00 13.00 30.00 88.00 13.00 31.00 88.00 13.00 27.00 89.00 13.00 28.00 89.00 13.00 29.00 89.00 13.00 30.00 89.00 13.00 31.00 89.00 13.00 32.00 89.00 13.00 27.00 90.00 13.00 28.00 90.00 13.00 29.00 90.00 13.00 30.00 90.00 13.00 31.00 90.00 13.00 32.00 90.00 13.00 26.00 91.00 13.00 27.00 91.00 13.00 28.00 91.00 13.00 29.00 91.00 13.00 30.00 91.00 13.00 31.00 91.00 13.00 32.00 91.00 13.00 33.00 91.00 13.00 22.00 92.00 13.00 26.00 92.00 13.00 27.00 92.00 13.00 28.00 92.00 13.00 29.00 92.00 13.00 30.00 92.00 13.00 31.00 92.00 13.00 32.00 92.00 13.00 33.00 92.00 13.00 34.00 92.00 13.00 22.00 93.00 13.00 24.00 93.00 13.00 25.00 93.00 13.00 26.00 93.00 13.00 27.00 93.00 13.00 28.00 93.00 13.00 29.00 93.00 13.00 30.00 93.00 13.00 31.00 93.00 13.00 32.00 93.00 13.00 33.00 93.00 13.00 34.00 93.00 13.00 35.00 93.00 13.00 21.00 94.00 13.00 22.00 94.00 13.00 23.00 94.00 13.00 24.00 94.00 13.00 25.00 94.00 13.00 26.00 94.00 13.00 27.00 94.00 13.00 28.00 94.00 13.00 29.00 94.00 13.00 30.00 94.00 13.00 31.00 94.00 13.00 32.00 94.00 13.00 33.00 94.00 13.00 34.00 94.00 13.00 35.00 94.00 13.00 36.00 94.00 13.00 21.00 95.00 13.00 22.00 95.00 13.00 23.00 95.00 13.00 24.00 95.00 13.00 25.00 95.00 13.00 26.00 95.00 13.00 28.00 95.00 13.00 29.00 95.00 13.00 30.00 95.00 13.00 31.00 95.00 13.00 32.00 95.00 13.00 33.00 95.00 13.00 34.00 95.00 13.00 35.00 95.00 13.00 37.00 95.00 13.00 22.00 96.00 13.00 23.00 96.00 13.00 24.00 96.00 13.00 25.00 96.00 13.00 26.00 96.00 13.00 27.00 96.00 13.00 28.00 96.00 13.00 29.00 96.00 13.00 30.00 96.00 13.00 32.00 96.00 13.00 33.00 96.00 13.00 34.00 96.00 13.00 35.00 96.00 13.00 36.00 96.00 13.00 22.00 97.00 13.00 23.00 97.00 13.00 24.00 97.00 13.00 25.00 97.00 13.00 26.00 97.00 13.00 27.00 97.00 13.00 29.00 97.00 13.00 30.00 97.00 13.00 31.00 97.00 13.00 32.00 97.00 13.00 33.00 97.00 13.00 34.00 97.00 13.00 35.00 97.00 13.00 36.00 97.00 13.00 24.00 98.00 13.00 25.00 98.00 13.00 26.00 98.00 13.00 27.00 98.00 13.00 28.00 98.00 13.00 29.00 98.00 13.00 30.00 98.00 13.00 31.00 98.00 13.00 32.00 98.00 13.00 33.00 98.00 13.00 35.00 98.00 13.00 36.00 98.00 13.00 24.00 99.00 13.00 25.00 99.00 13.00 26.00 99.00 13.00 27.00 99.00 13.00 28.00 99.00 13.00 29.00 99.00 13.00 30.00 99.00 13.00 31.00 99.00 13.00 32.00 99.00 13.00 36.00 99.00 13.00 24.00 100.00 13.00 25.00 100.00 13.00 26.00 100.00 13.00 27.00 100.00 13.00 28.00 100.00 13.00 29.00 100.00 13.00 30.00 100.00 13.00 31.00 100.00 13.00 32.00 100.00 13.00 33.00 100.00 13.00 34.00 100.00 13.00 35.00 100.00 13.00 36.00 100.00 13.00 22.00 101.00 13.00 23.00 101.00 13.00 24.00 101.00 13.00 25.00 101.00 13.00 26.00 101.00 13.00 27.00 101.00 13.00 28.00 101.00 13.00 29.00 101.00 13.00 30.00 101.00 13.00 31.00 101.00 13.00 32.00 101.00 13.00 33.00 101.00 13.00 34.00 101.00 13.00 35.00 101.00 13.00 36.00 101.00 13.00 21.00 102.00 13.00 22.00 102.00 13.00 23.00 102.00 13.00 24.00 102.00 13.00 25.00 102.00 13.00 26.00 102.00 13.00 27.00 102.00 13.00 28.00 102.00 13.00 29.00 102.00 13.00 30.00 102.00 13.00 31.00 102.00 13.00 32.00 102.00 13.00 33.00 102.00 13.00 34.00 102.00 13.00 36.00 102.00 13.00 33.00 75.00 14.00 28.00 76.00 14.00 31.00 76.00 14.00 32.00 76.00 14.00 33.00 76.00 14.00 27.00 77.00 14.00 28.00 77.00 14.00 31.00 77.00 14.00 32.00 77.00 14.00 33.00 77.00 14.00 34.00 77.00 14.00 25.00 78.00 14.00 27.00 78.00 14.00 28.00 78.00 14.00 29.00 78.00 14.00 30.00 78.00 14.00 31.00 78.00 14.00 32.00 78.00 14.00 33.00 78.00 14.00 34.00 78.00 14.00 35.00 78.00 14.00 36.00 78.00 14.00 37.00 78.00 14.00 22.00 79.00 14.00 23.00 79.00 14.00 25.00 79.00 14.00 27.00 79.00 14.00 28.00 79.00 14.00 29.00 79.00 14.00 30.00 79.00 14.00 31.00 79.00 14.00 33.00 79.00 14.00 34.00 79.00 14.00 35.00 79.00 14.00 36.00 79.00 14.00 37.00 79.00 14.00 21.00 80.00 14.00 22.00 80.00 14.00 23.00 80.00 14.00 25.00 80.00 14.00 27.00 80.00 14.00 28.00 80.00 14.00 29.00 80.00 14.00 30.00 80.00 14.00 31.00 80.00 14.00 32.00 80.00 14.00 33.00 80.00 14.00 35.00 80.00 14.00 36.00 80.00 14.00 37.00 80.00 14.00 21.00 81.00 14.00 22.00 81.00 14.00 23.00 81.00 14.00 25.00 81.00 14.00 27.00 81.00 14.00 28.00 81.00 14.00 29.00 81.00 14.00 30.00 81.00 14.00 32.00 81.00 14.00 33.00 81.00 14.00 36.00 81.00 14.00 37.00 81.00 14.00 21.00 82.00 14.00 22.00 82.00 14.00 23.00 82.00 14.00 26.00 82.00 14.00 27.00 82.00 14.00 28.00 82.00 14.00 29.00 82.00 14.00 30.00 82.00 14.00 32.00 82.00 14.00 33.00 82.00 14.00 36.00 82.00 14.00 37.00 82.00 14.00 26.00 83.00 14.00 27.00 83.00 14.00 28.00 83.00 14.00 29.00 83.00 14.00 30.00 83.00 14.00 31.00 83.00 14.00 32.00 83.00 14.00 33.00 83.00 14.00 38.00 83.00 14.00 26.00 84.00 14.00 27.00 84.00 14.00 28.00 84.00 14.00 29.00 84.00 14.00 30.00 84.00 14.00 31.00 84.00 14.00 32.00 84.00 14.00 33.00 84.00 14.00 38.00 84.00 14.00 26.00 85.00 14.00 27.00 85.00 14.00 28.00 85.00 14.00 29.00 85.00 14.00 30.00 85.00 14.00 31.00 85.00 14.00 32.00 85.00 14.00 33.00 85.00 14.00 24.00 86.00 14.00 26.00 86.00 14.00 27.00 86.00 14.00 28.00 86.00 14.00 29.00 86.00 14.00 30.00 86.00 14.00 31.00 86.00 14.00 32.00 86.00 14.00 33.00 86.00 14.00 34.00 86.00 14.00 24.00 87.00 14.00 25.00 87.00 14.00 26.00 87.00 14.00 27.00 87.00 14.00 28.00 87.00 14.00 29.00 87.00 14.00 30.00 87.00 14.00 31.00 87.00 14.00 32.00 87.00 14.00 33.00 87.00 14.00 34.00 87.00 14.00 22.00 88.00 14.00 24.00 88.00 14.00 25.00 88.00 14.00 26.00 88.00 14.00 27.00 88.00 14.00 28.00 88.00 14.00 29.00 88.00 14.00 30.00 88.00 14.00 31.00 88.00 14.00 32.00 88.00 14.00 33.00 88.00 14.00 34.00 88.00 14.00 22.00 89.00 14.00 23.00 89.00 14.00 24.00 89.00 14.00 25.00 89.00 14.00 26.00 89.00 14.00 27.00 89.00 14.00 28.00 89.00 14.00 29.00 89.00 14.00 30.00 89.00 14.00 31.00 89.00 14.00 32.00 89.00 14.00 33.00 89.00 14.00 34.00 89.00 14.00 35.00 89.00 14.00 36.00 89.00 14.00 37.00 89.00 14.00 22.00 90.00 14.00 23.00 90.00 14.00 24.00 90.00 14.00 25.00 90.00 14.00 26.00 90.00 14.00 27.00 90.00 14.00 28.00 90.00 14.00 29.00 90.00 14.00 30.00 90.00 14.00 31.00 90.00 14.00 32.00 90.00 14.00 33.00 90.00 14.00 34.00 90.00 14.00 35.00 90.00 14.00 36.00 90.00 14.00 37.00 90.00 14.00 22.00 91.00 14.00 23.00 91.00 14.00 24.00 91.00 14.00 25.00 91.00 14.00 26.00 91.00 14.00 27.00 91.00 14.00 28.00 91.00 14.00 29.00 91.00 14.00 30.00 91.00 14.00 31.00 91.00 14.00 32.00 91.00 14.00 33.00 91.00 14.00 34.00 91.00 14.00 35.00 91.00 14.00 36.00 91.00 14.00 37.00 91.00 14.00 21.00 92.00 14.00 22.00 92.00 14.00 23.00 92.00 14.00 24.00 92.00 14.00 25.00 92.00 14.00 26.00 92.00 14.00 27.00 92.00 14.00 28.00 92.00 14.00 29.00 92.00 14.00 30.00 92.00 14.00 31.00 92.00 14.00 32.00 92.00 14.00 33.00 92.00 14.00 34.00 92.00 14.00 35.00 92.00 14.00 36.00 92.00 14.00 37.00 92.00 14.00 38.00 92.00 14.00 21.00 93.00 14.00 22.00 93.00 14.00 23.00 93.00 14.00 24.00 93.00 14.00 25.00 93.00 14.00 26.00 93.00 14.00 27.00 93.00 14.00 28.00 93.00 14.00 29.00 93.00 14.00 30.00 93.00 14.00 31.00 93.00 14.00 32.00 93.00 14.00 33.00 93.00 14.00 34.00 93.00 14.00 35.00 93.00 14.00 36.00 93.00 14.00 37.00 93.00 14.00 38.00 93.00 14.00 21.00 94.00 14.00 22.00 94.00 14.00 23.00 94.00 14.00 24.00 94.00 14.00 25.00 94.00 14.00 26.00 94.00 14.00 27.00 94.00 14.00 28.00 94.00 14.00 29.00 94.00 14.00 30.00 94.00 14.00 31.00 94.00 14.00 32.00 94.00 14.00 33.00 94.00 14.00 34.00 94.00 14.00 35.00 94.00 14.00 36.00 94.00 14.00 37.00 94.00 14.00 19.00 95.00 14.00 21.00 95.00 14.00 22.00 95.00 14.00 23.00 95.00 14.00 24.00 95.00 14.00 25.00 95.00 14.00 26.00 95.00 14.00 27.00 95.00 14.00 28.00 95.00 14.00 29.00 95.00 14.00 30.00 95.00 14.00 31.00 95.00 14.00 32.00 95.00 14.00 33.00 95.00 14.00 34.00 95.00 14.00 35.00 95.00 14.00 36.00 95.00 14.00 37.00 95.00 14.00 19.00 96.00 14.00 21.00 96.00 14.00 22.00 96.00 14.00 23.00 96.00 14.00 24.00 96.00 14.00 25.00 96.00 14.00 26.00 96.00 14.00 27.00 96.00 14.00 28.00 96.00 14.00 29.00 96.00 14.00 30.00 96.00 14.00 31.00 96.00 14.00 32.00 96.00 14.00 33.00 96.00 14.00 34.00 96.00 14.00 35.00 96.00 14.00 36.00 96.00 14.00 37.00 96.00 14.00 21.00 97.00 14.00 22.00 97.00 14.00 23.00 97.00 14.00 24.00 97.00 14.00 25.00 97.00 14.00 26.00 97.00 14.00 27.00 97.00 14.00 28.00 97.00 14.00 29.00 97.00 14.00 30.00 97.00 14.00 31.00 97.00 14.00 32.00 97.00 14.00 33.00 97.00 14.00 34.00 97.00 14.00 35.00 97.00 14.00 36.00 97.00 14.00 37.00 97.00 14.00 21.00 98.00 14.00 22.00 98.00 14.00 23.00 98.00 14.00 24.00 98.00 14.00 25.00 98.00 14.00 26.00 98.00 14.00 27.00 98.00 14.00 28.00 98.00 14.00 29.00 98.00 14.00 30.00 98.00 14.00 31.00 98.00 14.00 32.00 98.00 14.00 33.00 98.00 14.00 34.00 98.00 14.00 35.00 98.00 14.00 21.00 99.00 14.00 22.00 99.00 14.00 23.00 99.00 14.00 24.00 99.00 14.00 25.00 99.00 14.00 26.00 99.00 14.00 27.00 99.00 14.00 28.00 99.00 14.00 29.00 99.00 14.00 30.00 99.00 14.00 31.00 99.00 14.00 32.00 99.00 14.00 33.00 99.00 14.00 34.00 99.00 14.00 35.00 99.00 14.00 36.00 99.00 14.00 37.00 99.00 14.00 21.00 100.00 14.00 22.00 100.00 14.00 23.00 100.00 14.00 24.00 100.00 14.00 25.00 100.00 14.00 26.00 100.00 14.00 27.00 100.00 14.00 28.00 100.00 14.00 29.00 100.00 14.00 30.00 100.00 14.00 31.00 100.00 14.00 32.
[...]
POINT_DATA 49964
VECTORS vector_field float
0.06 1.83 0.89 1.96 -3.52 0.95 2.52 -2.85 1.27 0.85 -1.83 0.58 1.23 -0.95 0.67 0.15 -1.16 0.25 1.68 -1.08 1.07 0.86 -1.04 0.70 0.94 -0.60 0.83 1.06 0.13 -0.72 0.18 -1.20 0.17 1.13 -0.34 -0.65 -0.61 -1.10 0.26 2.00 -1.12 0.44 1.76 -0.25 0.42 1.14 -0.48 0.32 0.83 -0.72 -0.84 0.22 -1.39 0.99 0.88 -1.51 0.49 1.67 0.14 0.80 1.75 1.33 1.58 1.28 1.89 1.56 0.65 1.69 1.48 0.17 2.39 1.80 -0.03 2.48 2.03 -0.12 1.36 0.39 2.03 0.78 1.55 0.24 1.73 2.03 0.12 1.76 2.22 -0.53 1.76 1.96 0.69 -0.03 0.74 0.21 1.05 0.19 -0.54 0.25 0.83 1.62 0.73 1.85 1.99 0.79 1.68 0.09 0.76 1.69 0.31 0.27 1.06 0.38 -0.52 1.17 0.36 -1.20 1.22 -0.44 -1.08 1.39 0.22 -1.02 5.82 0.37 -2.54 1.27 -0.45 -1.69 1.61 0.68 -1.40 5.50 0.38 -1.82 5.72 0.33 -3.41 1.27 -0.50 -2.17 4.73 -0.40 -0.47 2.93 1.17 -1.02 3.81 0.91 -1.92 4.69 0.32 -2.84 0.93 -0.08 -2.07 1.24 -0.61 -1.20 4.76 -0.79 -0.63 3.30 1.65 -0.53 2.47 0.68 -1.98 5.00 0.59 -2.96 1.33 -0.22 -2.21 5.92 -0.67 -1.95 5.28 -0.20 -0.30 2.50 2.86 -1.81 0.58 1.92 -2.22 0.34 0.70 -2.21 4.76 0.41 -2.46 5.76 0.06 -2.32 5.73 -0.09 -2.22 3.67 -0.48 -1.02 0.73 -0.86 -1.55 4.03 1.50 -2.58 1.43 2.32 -1.60 1.64 1.71 -2.67 0.43 0.43 -1.45 4.17 0.05 -1.37 2.05 0.50 -2.33 4.26 0.44 -0.94 1.62 0.09 -1.28 2.05 -0.43 -1.66 2.73 -1.64 -1.42 0.56 1.64 -2.68 1.31 2.03 -1.90 5.27 1.69 -2.33 5.22 1.22 -2.24 4.36 1.60 -2.78 0.94 0.93 -3.17 0.70 0.03 -3.03 0.99 -0.03 -2.45 1.47 0.63 -1.64 0.55 -0.64 -2.02 0.77 -1.18 -2.97 0.29 -1.67 -1.56 0.35 -1.46 -1.15 0.61 0.64 -0.57 0.93 1.17 -2.40 1.26 0.55 -2.23 1.55 0.53 -1.87 2.31 0.63 -1.63 3.37 0.92 -2.08 2.98 1.79 -3.59 0.81 0.88 -2.37 1.15 0.49 -3.64 0.94 0.68 -1.94 1.17 1.10 -1.14 0.55 0.36 -1.73 0.95 -1.02 -3.31 0.29 -1.41 -1.97 0.35 -1.33 -1.48 0.41 -0.54 -0.97 0.43 -0.39 -1.18 1.18 0.07 -1.42 0.80 -0.11 -1.62 0.93 0.25 -2.17 0.67 0.74 -2.07 0.67 2.12 -2.97 0.61 0.97 -1.27 1.01 0.61 -2.35 0.75 0.29 -2.07 0.68 0.64 -0.80 0.40 0.73 -1.24 0.42 -0.55 -2.53 0.22 -0.87 -2.32 0.30 -1.33 -2.23 0.31 -0.49 -1.11 0.26 -0.52 -1.36 0.56 -0.46 -1.73 0.36 -0.78 -1.90 0.23 0.45 -2.29 0.44 0.57 -2.86 -0.26 -0.27 -1.28 0.18 0.08 -1.01 0.18 0.28 -1.45 0.63 -0.04 -1.83 0.50 0.93 -1.32 0.33 -0.37 -2.76 0.17 -0.73 -3.07 0.30 -0.28 -2.45 0.18 0.24 -1.39 0.11 -0.66 -0.72 0.92 -0.56 -1.42 0.25 0.05 -2.27 0.32 0.48 -3.00 0.29 0.36 -2.99 0.22 0.21 -1.26 0.24 0.10 0.58 2.12 0.89 1.44 3.07 0.56 1.01 3.15 0.37 0.26 2.19 0.43 -1.22 0.45 0.48 -2.48 0.13 0.18 -2.41 0.09 0.24 -2.02 0.05 -0.42 -1.32 0.31 0.06 -1.27 0.77 0.02 -1.38 0.65 0.55 1.01 2.43 0.72 1.59 3.09 0.61 0.71 0.76 0.63 1.50 2.09 0.38 1.13 3.27 -0.15 1.36 3.28 -0.20 0.55 2.72 0.45 -0.17 0.96 0.95 -0.66 0.12 -0.99 -0.47 0.32 0.50 0.27 2.15 0.79 0.34 2.11 1.24 2.33 2.17 0.59 2.75 3.03 0.19 2.61 2.68 0.12 2.67 2.39 -0.06 1.63 2.84 -0.35 1.44 2.73 -0.60 1.45 1.11 -0.16 0.18 1.78 1.62 2.32 2.45 1.92 2.64 2.48 1.24 2.64 2.57 0.92 2.54 2.16 0.78 2.63 1.88 0.62 2.60 1.84 0.25 2.65 1.71 -0.37 2.37 2.20 -0.94 1.70 2.36 -0.19 0.74 1.50 -0.13 0.92 1.12 -0.16 1.23 1.39 -0.40 0.86 1.24 -0.62 0.72 1.20 1.93 1.62 2.04 2.61 1.69 2.33 1.95 1.69 2.45 1.51 1.69 2.23 0.95 1.67 1.90 0.80 1.69 1.75 0.70 1.69 1.70 0.24 1.73 1.61 -0.29 1.71 1.83 -1.03 1.72 1.83 -1.17 0.65 2.27 -0.33 0.76 1.43 0.05 1.71 1.60 0.04 0.39 1.15 -0.38 0.52 1.48 -0.35 0.66 1.41 2.32 0.80 1.95 2.33 0.76 2.29 1.89 0.71 2.32 1.54 0.73 1.97 0.96 0.71 1.64 0.86 0.70 1.64 0.75 0.73 1.56 0.22 0.77 1.49 -0.42 0.77 1.58 -1.00 0.82 1.24 -1.55 0.80 0.94 -0.28 0.41 0.89 -2.47 2.13 0.65 0.48 2.19 1.17 -1.68 2.80 0.45 -2.33 1.23 3.80 -3.14 1.23 4.65 1.19 2.07 2.71 0.73 2.42 0.71 -1.63 2.31 0.45 -2.21 0.89 4.37 -3.13 1.17 4.75 -3.72 0.78 2.37 1.02 0.74 0.89 0.97 2.04 4.79 0.53 1.37 2.36 -0.41 1.49 2.97 -1.03 3.38 0.33 -1.75 2.11 1.10 -2.27 0.81 4.37 -3.19 0.91 4.59 -3.91 0.65 3.79 -5.30 1.11 0.34 -4.36 -0.94 0.18 -2.97 -0.76 0.51 2.47 -0.32 0.21 1.86 0.09 0.02 2.12 2.62 5.64 0.88 1.69 6.09 0.08 1.19 5.34 -0.81 1.29 5.42 -1.49 1.02 6.91 -1.82 2.44 0.42 -3.42 0.77 1.16 -4.30 1.07 0.59 -5.00 -0.59 0.24 -4.28 -1.69 0.18 -3.36 -1.49 0.34 1.30 -0.56 0.64 2.13 -1.28 0.46 0.67 -0.97 0.87 2.11 1.82 5.11 0.20 1.15 11.47 -0.18 0.67 6.92 -0.93 0.32 6.70 -1.90 -0.36 11.17 -1.63 1.49 0.76 -2.41 1.07 7.57 -3.29 1.50 9.04 -4.69 0.26 0.58 -3.57 -1.79 0.35 -3.20 -1.52 0.42 1.18 -1.41 0.62 1.41 -1.96 0.83 0.48 -1.78 0.81 1.91 0.88 8.36 -0.01 0.43 11.38 -0.76 0.09 11.55 -1.30 -0.92 10.70 -1.78 -1.26 11.39 -2.48 0.64 9.70 -3.21 0.93 10.08 -3.23 -1.52 0.30 -2.31 -1.82 0.57 1.30 -2.04 0.58 0.53 -1.96 0.59 0.38 -2.39 0.78 0.61 0.06 10.93 -0.14 0.05 10.94 -0.81 -0.64 11.43 -1.75 -1.19 11.90 -1.45 -1.58 8.61 -2.55 0.71 10.89 -3.47 0.73 10.98 -1.05 -1.56 0.58 -1.03 -1.68 0.37 0.43 -0.85 10.88 -0.07 -0.69 10.79 -0.63 -1.59 11.43 -1.63 -2.14 11.80 -1.18 -2.12 4.77 -1.87 -1.48 9.77 -2.35 -0.13 6.13 -3.58 0.31 10.68 -1.04 0.51 1.21 0.83 -1.00 10.39 0.59 -0.72 10.15 0.14 -2.33 11.09 -1.47 -3.15 11.81 -0.88 -2.66 1.01 -1.98 -2.20 9.60 -2.52 -1.15 6.64 -3.67 -0.28 10.45 -0.29 0.64 0.93 1.12 -1.47 9.95 0.37 -1.24 10.07 0.07 -2.26 7.43 -0.78 -4.23 9.84 -1.15 -3.34 10.23 -1.63 -2.25 6.47 -2.08 -1.45 4.17 -3.63 -0.99 10.23 2.42 -2.26 7.10 1.36 -1.57 8.93 0.58 -1.66 9.02 0.38 -2.51 6.03 -0.61 -4.63 10.89 -0.80 -3.25 6.29 -1.27 -2.57 4.82 -1.86 -0.87 3.84 -3.38 -1.60 9.73 -3.56 -1.23 8.59 2.49 -2.60 6.48 1.60 -2.73 7.89 1.42 -1.84 6.81 0.77 -2.07 7.66 0.24 -2.70 6.47 -0.03 -4.85 3.55 -0.52 -3.69 4.77 -1.24 -2.85 2.05 -1.99 -1.35 5.33 -2.53 -1.18 7.86 -3.26 -1.23 7.67 -1.05 -2.70 1.84 2.07 -3.21 6.26 1.59 -3.13 7.18 1.29 -2.56 7.18 0.63 -2.46 7.40 0.21 -3.05 6.46 0.24 -5.00 0.60 -0.39 -4.13 1.85 -1.27 -2.36 5.54 -2.11 -2.11 8.36 -2.22 -1.05 6.33 -2.61 -0.68 4.04 -1.86 -3.08 1.81 -0.19 -2.87 2.81 1.59 -2.80 4.64 1.42 -2.79 5.22 1.08 -2.55 5.82 0.38 -2.42 6.10 0.53 -3.45 6.68 0.32 -4.65 0.37 -0.39 -3.29 4.72 -1.46 -2.93 7.50 -1.67 -2.22 7.33 -2.24 -1.83 6.57 -2.45 -1.22 4.07 -2.90 -0.94 4.40 -2.52 -0.01 2.95 -1.98 0.58 0.38 -1.70 -3.31 1.77 -1.00 -3.16 1.45 1.26 -3.15 5.12 1.43 -2.33 5.00 1.14 -2.04 5.02 0.59 -1.95 6.01 0.41 -3.09 6.87 0.07 -3.75 4.55 -0.43 -3.44 6.54 -1.08 -3.15 7.30 -1.29 -2.25 6.65 -1.99 -2.10 6.45 -2.36 -1.71 4.65 -2.68 -1.36 4.52 -1.86 0.13 2.08 -1.56 0.03 0.12 -2.22 -3.37 2.03 -0.84 -3.41 1.38 1.81 -2.66 4.27 1.88 -2.83 4.78 1.36 -2.65 5.53 0.94 -2.51 5.73 0.49 -3.13 6.59 0.00 -3.23 5.79 -0.39 -2.90 5.79 -0.93 -3.16 6.62 -1.14 -2.68 6.16 -1.98 -2.80 6.24 -2.76 -2.70 5.75 -1.57 -0.91 2.99 -0.98 -0.72 0.05 -1.41 -0.44 0.05 -1.86 -1.36 2.01 -2.34 -2.80 2.01 1.19 -2.97 0.61 2.18 -3.05 4.49 2.09 -3.38 4.68 1.80 -3.38 5.84 1.03 -3.07 5.70 0.49 -3.37 6.35 0.27 -2.20 5.99 -0.47 -2.49 5.56 -0.40 -2.14 5.90 -0.94 -2.97 5.95 -1.86 -3.30 6.07 -2.59 -3.10 6.04 -0.28 -0.37 0.92 -0.72 -1.16 0.16 -1.10 -0.88 0.08 -1.40 -0.31 0.09 -1.36 -0.70 1.43 -1.47 -2.16 1.45 0.67 -3.05 1.86 1.57 -2.39 4.76 1.65 -3.05 4.68 1.50 -3.57 5.81 1.00 -3.70 5.91 0.50 -3.51 6.02 -0.04 -2.54 5.83 -0.56 -2.44 5.45 -0.07 -1.52 5.57 -0.50 -1.71 5.50 -1.52 -2.37 5.95 -2.10 -2.92 6.02 -1.88 -1.19 4.86 -0.58 -1.00 0.35 -0.52 -1.08 0.13 -1.25 -1.06 0.12 -2.09 -0.44 1.34 -0.82 -1.16 0.18 0.38 -2.13 2.39 1.38 -2.36 5.40 1.11 -2.75 5.40 1.35 -3.70 5.86 0.91 -3.35 5.68 0.26 -2.72 5.64 -0.45 -2.53 5.46 -0.74 -2.72 5.36 0.79 1.13 5.57 0.42 0.94 5.41 -0.00 -0.34 5.03 -1.10 -1.71 4.51 -0.39 -1.56 2.38 -0.34 -1.34 0.46 -0.31 -1.75 0.20 -0.29 -0.13 0.95 -2.12 -0.38 1.23 -2.29 -1.22 0.69 -1.61 -1.48 0.03 0.52 -1.66 5.00 0.60 -1.95 5.12 0.33 -2.06 5.11 -0.26 -1.83 5.20 -1.02 -1.09 5.28 -1.49 -0.30 5.04 -0.55 0.16 5.64 0.37 1.68 5.10 0.03 1.32 5.21 -0.52 1.37 4.97 -0.59 0.50 4.68 -0.20 -1.02 3.65 -0.35 -1.68 0.50 -1.03 -1.99 0.09 -0.11 -0.62 0.88 -1.86 -0.50 0.92 -2.83 -0.83 0.98 -2.89 -1.18 0.48 0.21 -0.24 2.77 0.47 -0.44 4.26 0.11 -0.54 4.57 -0.46 -0.28 4.58 -1.08 0.13 4.56 -0.75 0.50 4.93 -0.17 1.20 4.99 0.04 1.70 4.60 -0.26 1.40 4.64 -0.73 1.46 4.29 -0.83 1.17 3.98 -0.74 0.78 3.56 -0.13 -1.86 -0.08 -0.41 -1.34 0.02 -1.71 -0.22 1.35 -2.33 -0.34 1.17 -1.40 -0.59 0.03 0.67 0.07 3.14 0.78 0.03 3.83 0.47 0.07 4.09 0.09 0.02 4.40 0.13 0.61 4.57 0.60 1.61 4.10 0.15 1.97 3.49 -0.21 1.94 3.49 -0.47 2.07 3.46 -0.78 1.66 3.67 -0.49 0.91 3.49 0.15 0.10 1.94 -0.15 -1.71 -0.03 -0.45 -1.61 -0.23 -1.03 -0.34 1.37 -1.37 -0.60 0.91 0.15 0.16 1.05 1.09 0.25 3.32 1.31 0.54 3.82 1.61 0.82 3.96 1.74 1.45 4.00 1.31 2.00 3.87 0.74 1.97 3.68 0.61 2.68 3.39 -0.09 2.07 2.70 -0.67 1.85 3.02 -0.97 1.67 3.14 -1.41 1.13 3.15 -0.70 0.22 2.39 -0.26 0.66 1.66 0.22 1.13 1.21 -0.03 0.76 1.11 2.13 1.06 3.65 2.31 1.43 3.45 2.55 1.99 3.23 2.00 2.37 3.46 1.52 2.36 3.61 0.98 2.38 3.54 0.57 2.46 3.53 0.11 2.37 3.24 -0.52 2.17 2.52 -1.24 1.57 2.34 -1.41 1.01 2.77 -0.63 0.77 1.90 0.43 1.14 1.14 -0.02 1.05 1.12 0.74 1.44 1.11 0.42 1.64 1.57 1.44 1.92 2.50 2.82 1.95 2.58 2.49 2.53 2.30 1.79 2.49 2.36 1.10 2.19 2.50 1.31 1.64 2.99 1.02 1.55 3.28 0.69 1.57 3.36 0.31 1.53 2.66 -0.32 1.69 2.01 -1.12 1.48 2.12 -1.74 1.44 2.43 -1.18 0.71 2.35 0.09 1.12 1.67 0.02 0.49 1.25 0.47 0.85 1.01 1.30 1.62 1.27 2.49 1.66 2.11 2.91 1.79 2.03 2.47 1.76 1.88 1.76 1.71 1.90 1.07 1.66 1.78 0.35 1.45 2.01 0.63 1.43 1.30 1.13 1.54 1.10 0.46 1.65 1.05 -0.30 1.69 0.98 -0.85 1.46 1.27 -1.75 0.59 2.74 -2.06 0.52 2.17 -0.38 1.95 1.81 -0.47 0.66 1.59 0.35 0.56 0.96 1.02 0.75 1.10 2.28 0.72 1.17 3.08 0.79 1.72 2.42 0.77 1.73 1.78 0.73 1.68 1.17 0.70 1.53 0.63 0.58 1.50 1.01 0.73 0.94 0.97 0.75 0.76 0.33 0.75 0.75 -0.31 0.73 0.84 -0.82 0.73 0.71 -1.73 0.80 0.26 -1.59 0.77 0.14 0.44 1.60 1.22 -1.81 2.74 8.83 -0.75 0.52 5.71 -1.50 1.21 6.50 -2.47 1.50 7.06 -3.80 3.82 11.48 -3.40 0.01 5.13 2.40 1.13 6.37 1.77 2.43 10.08 0.92 2.62 10.16 0.22 2.61 9.70 -0.86 2.85 10.53 -1.68 3.00 10.59 -2.58 3.91 12.02 -3.57 3.84 12.16 -4.16 3.47 11.50 -3.99 1.21 5.68 -3.99 -0.16 2.35 1.58 -0.14 0.50 3.14 0.07 6.28 2.55 1.13 9.24 1.68 1.75 10.55 1.35 2.79 11.20 0.47 3.08 11.61 0.28 1.97 1.94 -0.78 2.15 3.50 -2.33 2.49 10.95 -3.55 2.94 12.08 -3.86 2.35 10.87 -4.00 1.35 5.25 -4.61 1.08 5.29 -5.48 1.11 6.30 -5.29 1.34 5.84 0.97 -1.83 0.99 3.31 0.00 7.87 2.65 0.53 8.94 1.93 0.39 1.25 1.22 2.49 6.76 0.49 1.96 6.84 0.02 1.73 5.03 -1.27 1.61 7.20 -2.70 2.39 11.62 -3.16 1.96 11.80 -2.92 1.15 4.78 -3.62 1.21 4.30 -4.57 0.97 4.86 -5.40 0.80 5.57 -5.17 0.56 4.12 -4.34 -1.78 -0.55 -1.89 -1.51 6.43 -2.67 -1.88 6.34 1.78 -1.69 3.22 1.91 -2.27 1.25 3.31 -0.50 7.20 1.68 -0.83 -0.01 2.04 0.92 0.05 0.71 1.99 10.71 0.21 1.80 9.61 -0.51 1.52 10.81 -1.55 1.35 11.44 -2.62 1.50 11.49 -2.09 0.80 4.92 -2.83 0.99 4.72 -3.81 0.98 5.35 -4.58 0.77 4.78 -5.35 0.47 5.54 -4.39 -1.17 1.00 -4.26 -2.48 -0.65 -1.43 -3.64 1.91 -0.09 -1.63 2.20 -1.85 -2.45 6.29 -2.77 -3.12 6.33 -0.36 -2.98 2.70 2.00 -2.48 0.58 3.45 -0.69 6.50 3.18 0.58 4.91 2.51 0.62 2.41 0.66 1.08 10.65 -0.05 1.07 10.65 -0.98 0.95 10.75 -1.83 0.74 11.02 -2.35 0.49 11.50 -1.95 0.25 5.59 -2.74 0.32 6.06 -4.04 0.27 10.15 -5.01 0.46 10.68 -5.72 0.48 10.50 -3.71 -1.33 1.38 -4.08 -3.31 -0.68 -1.59 -4.08 1.55 -0.03 -2.26 2.07 -1.85 -3.48 6.31 -2.79 -4.06 6.40 -0.80 -3.95 2.55 1.67 -3.06 0.18 2.03 -2.42 -0.28 2.29 0.03 10.68 1.58 0.09 10.64 0.55 0.26 10.54 -0.21 0.31 10.49 -0.96 0.12 10.61 -1.83 -0.19 10.93 -2.22 -0.48 11.46 -2.25 -0.69 10.42 -3.11 -0.21 10.81 -3.81 0.07 10.88 -4.66 0.18 10.91 -5.18 0.12 11.21 -4.65 -0.24 4.91 -3.71 -3.24 -0.19 -2.07 -3.84 0.68 -0.25 -2.66 1.75 -1.69 -4.38 5.98 -2.73 -4.57 6.21 -0.54 -4.60 2.06 1.06 -3.55 0.44 1.81 -2.67 -0.96 1.94 -1.23 7.46 1.31 -0.57 10.45 0.41 -0.51 10.39 -0.34 -0.31 10.21 -0.84 -0.60 10.40 -1.77 -1.17 10.90 -2.26 -1.42 11.34 -2.29 -1.56 10.27 -2.59 0.47 10.03 -3.39 0.70 10.06 -4.24 0.42 10.34 -4.61 0.10 9.80 -3.90 -0.88 1.78 -3.75 -1.97 0.06 -2.35 -3.05 -0.19 -0.57 -3.24 1.36 -2.19 -1.99 6.66 -1.47 -4.62 4.37 -2.49 -4.93 4.76 -0.60 -4.63 1.61 1.25 -4.00 -0.18 0.67 -3.78 0.08 1.12 -2.50 -0.79 1.19 -1.39 10.32 0.27 -1.28 10.22 -0.48 -1.07 10.03 -0.62 -1.60 10.44 -1.68 -2.11 10.83 -1.59 -2.75 9.33 -2.28 -2.03 10.29 -2.69 -0.06 9.84 -3.33 0.02 10.00 -3.99 -0.10 10.08 -4.09 -0.46 7.93 -4.37 -0.37 4.43 -3.38 -1.21 2.02 -2.29 -2.11 -0.44 -1.24 -2.86 0.44 0.47 -0.55 1.85 -1.64 -4.99 4.08 -2.24 -5.57 4.10 -1.33 -5.28 1.78 0.72 -4.64 -0.35 2.02 -3.40 -0.64 1.76 -2.63 0.93 1.06 -1.94 9.95 0.09 -1.86 9.89 -0.48 -1.26 9.55 0.10 -1.38 9.58 -1.36 -3.20 10.89 -1.46 -2.40 10.34 -2.14 -1.30 9.66 -2.87 -0.37 9.38 -3.49 -0.51 9.58 -4.38 -0.61 9.67 -4.37 -0.85 8.40 -4.64 -0.83 6.27 -4.04 -1.04 2.99 -2.42 -1.30 -0.09 -1.21 -2.14 0.37 -0.11 -0.73 1.65 -3.48 -3.71 6.43 -2.78 -5.65 3.99 -2.27 -6.32 2.97 -0.20 -4.34 -0.36 2.13 -3.34 1.63 2.68 -2.25 3.38 1.34 -2.46 9.63 0.53 -2.09 9.44 -0.16 -1.58 9.22 0.25 -1.08 9.06 -0.83 -1.77 9.32 -1.25 -1.39 9.26 -2.03 -1.12 9.13 -2.71 -1.02 9.23 -3.55 -1.18 9.43 -4.47 -1.26 9.47 -4.78 -1.37 8.97 -4.81 -1.51 7.06 -3.98 -1.07 3.40 -2.63 -1.05 0.91 -1.08 -1.19 0.10 -0.79 -0.60 0.62 -3.71 -4.44 6.42 -3.52 -4.13 5.41 -2.62 -6.65 2.83 -1.29 -4.22 0.01 1.81 -3.02 5.32 1.91 -3.43 9.58 1.45 -2.90 9.29 0.65 -2.46 9.07 0.09 -1.90 8.86 0.32 -1.47 8.59 -0.32 -1.68 8.67 -0.98 -1.75 8.76 -1.86 -1.63 8.75 -2.54 -1.52 8.77 -3.40 -1.76 9.10 -4.41 -2.02 9.33 -4.82 -1.91 8.74 -4.36 -1.81 6.64 -4.17 -1.24 3.76 -2.46 -0.73 1.11 -1.45 -0.34 0.44 -1.09 -0.48 0.24 -3.55 -4.14 5.39 -4.75 -4.90 6.04 -1.22 -4.31 6.23 -2.28 -3.86 2.05 1.02 -3.17 4.07 1.80 -4.04 8.13 1.16 -3.62 8.82 0.75 -2.74 8.55 0.66 -1.99 7.78 0.44 -1.78 7.75 -0.27 -2.18 8.39 -0.82 -2.27 8.48 -1.65 -1.74 7.93 -2.38 -1.64 7.92 -3.10 -1.78 8.13 -4.15 -2.12 8.40 -3.99 -1.69 7.00 -3.90 -1.85 4.81 -3.44 -1.07 3.03 -2.41 -0.10 0.55 -1.60 -0.16 0.35 -1.38 -0.35 0.30 -3.44 -3.75 7.84 -3.52 -3.73 5.56 -4.20 -4.15 4.41 -3.30 -3.97 2.72 0.21 -3.62 3.45 1.68 -3.61 5.36 0.97 -3.73 7.26 1.01 -2.70 6.84 0.86 -2.28 6.84 0.40 -2.09 7.07 -0.12 -2.12 7.40 -0.57 -2.08 7.41 -1.21 -1.90 7.29 -2.04 -2.02 7.46 -2.65 -1.85 7.19 -3.26 -2.06 7.13 -3.85 -1.87 6.14 -3.55 -1.23 3.79 -3.25 -0.96 2.93 -1.89 0.11 0.35 -2.04 -0.09 0.27 -1.75 -0.48 0.33 -3.17 -2.21 4.82 -4.02 -3.52 5.87 -4.25 -3.91 4.77 -4.64 -3.62 3.22 -0.24 -3.62 3.59 0.95 -3.60 4.48 0.84 -3.29 5.72 1.15 -2.23 5.63 0.80 -2.31 6.06 0.40 -2.51 6.52 0.01 -2.28 6.51 -0.28 -2.26 6.65 -0.91 -2.18 6.54 -1.66 -2.09 6.42 -2.39 -1.80 6.12 -3.05 -1.99 6.09 -3.49 -2.05 5.70 -3.10 -1.25 3.32 -2.17 -0.30 1.48 -1.68 0.25 -0.39 -2.38 0.59 -0.35 -2.70 0.50 0.11 -3.74 -1.92 5.84 -4.32 -2.69 4.69 -4.85 -4.10 3.94 -4.52 -3.51 2.36 -2.56 -3.74 0.82 0.82 -3.38 3.89 1.58 -2.66 5.06 1.17 -2.42 5.33 0.70 -2.40 5.50 0.39 -2.77 5.89 -0.01 -2.60 5.71 -0.37 -2.61 5.82 -0.91 -2.52 5.89 -1.35 -2.26 5.87 -2.06 -2.09 5.61 -2.86 -2.22 5.45 -3.25 -2.33 5.27 -2.82 -1.58 3.66 -1.68 -0.15 -0.21 -1.74 -0.11 -0.57 -2.29 0.78 -0.35 -3.46 -1.46 4.46 -4.26 -3.22 4.24 -4.03 -3.60 2.55 -3.73 -3.85 1.62 -2.13 -3.52 0.65 1.64 -2.88 4.83 1.96 -3.05 5.16 1.51 -3.08 5.46 0.75 -2.96 5.33 0.38 -3.16 5.69 0.09 -3.04 5.63 -0.28 -2.86 5.60 -0.68 -3.02 5.72 -1.12 -2.92 5.54 -1.99 -2.89 5.40 -2.87 -2.82 5.23 -3.65 -2.69 5.02 -3.13 -1.64 5.32 -0.97 -0.04 1.12 -1.59 0.28 -0.22 -2.07 0.45 -0.33 -3.44 -2.16 3.48 -3.72 -3.23 2.52 -3.83 -3.55 1.89 -3.24 -3.52 1.16 1.43 -2.26 4.86 2.37 -3.45 5.08 2.10 -3.66 5.19 1.70 -3.83 5.44 0.91 -3.81 5.47 0.45 -3.76 5.59 0.29 -2.84 5.52 -0.28 -2.95 5.26 -0.53 -3.14 5.23 -1.07 -3.26 5.16 -1.89 -3.34 5.21 -2.72 -3.25 5.26 -3.36 -2.96 5.41 -3.31 -1.96 5.55 -0.86 -0.33 1.27 -1.47 -0.27 -0.18 -1.63 -0.10 -0.39 -1.34 0.44 0.13 -1.88 -0.69 3.94 -2.79 -1.81 2.79 -3.06 -2.45 2.15 -2.40 -2.12 1.26 -1.31 -2.01 1.20 2.65 -3.28 5.32 2.46 -3.72 5.40 2.09 -4.10 5.33 1.72 -4.36 5.38 1.11 -4.54 5.48 0.60 -3.89 5.46 0.29 -3.05 5.49 -0.13 -2.86 5.47 -0.75 -2.98 5.27 -0.92 -3.07 5.34 -1.58 -3.43 5.43 -2.38 -3.36 5.63 -3.20 -3.19 5.67 -3.65 -2.25 5.55 -3.29 -0.66 4.32 -1.13 -0.74 0.27 -1.55 -0.50 -0.48 -1.29 0.02 0.20 0.60 -0.06 0.81 -2.51 -1.66 3.24 -1.77 -1.05 1.09 -2.28 -0.43 0.75 0.88 -0.87 4.08 2.21 -2.68 5.19 2.42 -3.37 5.50 2.23 -3.52 5.24 1.86 -3.43 5.18 1.45 -3.79 5.42 0.78 -2.76 5.29 0.11 -1.65 5.20 0.44 -1.35 5.21 -0.26 -2.13 5.24 -1.02 -2.70 5.33 -1.66 -2.80 5.35 -2.36 -2.78 5.37 -2.87 -2.32 5.31 -2.93 -1.40 4.77 -1.90 -1.01 3.21 -1.14 -1.44 -0.12 -1.43 -0.39 0.15 -1.76 -0.46 0.19 0.19 0.93 1.30 -0.76 -0.63 1.55 -1.03 -0.42 0.80 -2.07 -0.36 0.50 0.07 -0.55 3.52 1.88 -1.91 4.96 1.92 -2.37 4.97 1.46 -2.47 4.86 1.25 -2.62 4.91 0.86 -2.25 5.08 0.34 -1.57 5.20 0.47 -0.40 5.45 0.47 -0.55 5.57 0.28 -1.34 5.35 -0.10 -1.54 5.19 -0.77 -1.49 5.20 -1.41 -1.11 5.22 -1.82 -0.74 5.01 -2.14 -0.89 4.73 -0.33 -1.40 0.36 -1.04 -1.54 -0.14 -0.66 -0.77 1.02 -1.29 -1.05 0.02 -2.09 -0.65 0.41 -0.55 -0.35 2.66 1.75 -1.18 4.22 1.71 -1.07 4.47 1.35 -1.75 4.84 0.79 -1.50 4.70 0.20 -0.84 4.50 -0.13 -0.55 4.58 0.08 -0.27 4.83 0.74 -0.27 5.08 0.15 0.40 4.64 -0.24 0.82 4.30 -0.86 0.18 4.61 -1.49 -0.34 4.75 -2.17 -0.17 4.60 -2.47 0.36 4.11 -1.54 0.40 2.65 -0.87 -1.04 -0.27 -0.22 -1.76 -0.03 -1.28 -0.29 0.88 -1.72 0.63 1.21 -0.81 0.06 1.41 1.73 -0.38 3.43 1.90 -1.35 4.28 1.49 -1.72 4.41 0.85 -1.49 4.34 0.64 -0.25 4.24 0.84 0.93 4.12 0.82 1.70 3.75 0.62 1.97 3.49 -0.05 1.49 3.72 -0.20 1.63 3.55 -0.69 1.45 3.34 -1.69 1.05 3.84 -2.53 0.34 4.26 -3.01 1.12 3.51 -1.95 0.99 2.39 -0.56 -1.07 0.28 -0.52 0.70 1.49 0.59 2.12 1.11 1.68 1.58 2.24 2.48 -0.21 3.31 2.40 -1.14 3.75 1.95 -1.39 3.90 1.68 -0.54 4.02 1.93 1.23 3.48 1.40 1.79 3.22 0.84 2.14 2.89 0.83 2.31 2.64 0.02 2.15 2.68 -0.66 1.83 2.89 -1.20 1.59 2.91 -2.14 1.45 3.18 -2.81 1.13 3.24 -3.02 0.82 2.99 -1.89 0.73 2.39 -0.71 -0.90 0.07 0.16 2.43 1.91 1.15 2.37 1.05 2.10 2.29 1.93 3.07 -0.09 3.27 2.82 0.27 3.13 3.28 1.09 2.98 2.80 1.59 2.67 2.02 2.30 2.64 1.53 2.23 2.90 0.96 2.35 2.90 0.67 2.43 2.65 0.05 2.25 2.47 -0.73 2.04 2.17 -1.51 1.48 2.21 -2.36 1.30 2.49 -2.92 0.89 2.66 -2.97 0.71 2.64 -0.15 1.21 0.93 0.45 2.46 1.07 1.46 2.44 1.37 3.81 0.87 2.38 3.61 1.14 2.35 3.33 1.40 2.42 2.59 1.57 2.40 1.92 1.60 2.40 1.45 1.59 2.46 0.92 1.58 2.50 0.61 1.62 2.58 0.09 1.59 2.44 -0.49 1.53 2.15 -1.11 1.43 1.92 -1.89 1.52 2.42 -2.81 1.05 2.13 -2.37 1.00 2.50 -0.14 0.94 1.29 0.33 0.82 0.56 0.69 1.56 0.69 1.42 1.63 0.81 3.30 1.50 1.46 2.99 1.49 1.49 2.54 1.70 1.16 1.71 1.62 1.24 0.99 1.52 1.24 0.38 1.20 1.32 0.28 0.66 1.40 0.74 0.65 1.61 0.23 0.65 1.46 -0.29 0.65 1.92 -1.03 0.62 2.06 -1.90 0.61 2.42 -2.74 0.60 2.50 -2.95 0.34 2.17 -0.76 2.30 1.28 0.86 0.59 0.61 0.89 0.75 0.30 2.38 0.80 0.91 3.01 0.82 0.88 2.37 0.78 0.82 1.69 0.73 0.93 1.03 0.69 0.80 0.35 0.57 0.81 1.09 0.68 0.03 0.23 1.71 0.75 -2.10 2.11 7.42 -0.42 5.09 11.22 -1.42 5.01 11.29 -2.39 5.09 11.28 -3.35 5.13 11.31 -4.29 5.05 11.46 -5.09 4.80 11.58 -5.51 2.78 10.11 -3.38 1.17 9.60 2.47 4.11 10.99 1.51 4.04 11.11 0.56 4.25 11.04 -0.38 4.35 11.04 -1.33 4.39 11.08 -2.27 4.42 11.14 -3.16 4.47 11.21 -4.06 4.49 11.29 -5.06 4.44 11.35 -6.08 4.33 11.46 -6.99 4.28 11.59 -7.69 4.20 11.52 -7.92 1.93 10.03 -7.69 3.20 9.93 3.47 0.81 6.45 4.28 2.50 9.73 3.08 1.71 9.13 2.39 2.23 10.05 1.59 3.37 10.99 0.78 3.72 10.96 -0.10 3.71 11.05 -1.04 3.73 11.09 -1.90 3.98 10.99 -2.79 4.20 10.82 -3.58 4.30 10.76 -4.16 4.30 10.77 -4.98 4.04 11.02 -6.54 3.43 11.49 -7.04 2.24 10.40 -6.81 1.23 9.67 -6.30 2.13 9.48 -2.72 -1.49 5.31 4.25 1.79 9.71 2.83 -0.13 8.05 2.56 2.20 10.94 1.75 3.10 10.72 0.80 3.53 10.27 -0.09 3.62 10.18 -0.80 3.38 10.58 -1.80 3.35 10.64 -2.75 3.42 10.58 -3.17 3.44 10.58 -3.60 3.23 10.70 -4.21 3.06 10.67 -5.03 2.83 10.79 -6.05 2.71 10.90 -6.32 2.60 11.24 -5.18 0.08 7.94 -3.50 -1.53 8.10 0.30 -3.13 3.92 2.73 -1.26 5.14 4.13 1.16 9.59 3.55 2.10 10.64 2.50 2.60 10.08 1.79 2.79 9.89 0.76 2.89 9.81 -0.14 2.89 9.81 -1.00 2.76 9.98 -1.87 2.69 10.12 -2.54 2.55 10.41 -2.60 2.29 10.63 -3.20 2.18 10.55 -3.94 2.27 10.44 -4.60 2.15 10.65 -5.42 1.91 10.90 -6.08 1.89 11.08 -4.64 -1.07 8.29 -2.66 -2.95 6.86 -2.15 -1.25 6.75 -1.48 -2.88 5.37 -0.11 -3.82 3.56 3.35 1.02 9.27 2.99 1.67 9.99 2.55 1.84 9.82 1.54 1.96 9.73 0.59 2.08 9.65 -0.13 2.03 9.68 -0.99 1.92 9.78 -1.77 1.77 10.00 -2.08 1.49 10.51 -2.25 1.43 10.28 -3.13 1.44 10.25 -3.96 1.56 10.17 -4.21 1.59 10.55 -4.95 1.41 10.76 -5.70 1.16 11.12 -4.37 -2.02 7.75 -1.89 -4.37 5.47 0.31 -3.26 2.53 -2.17 -1.81 6.70 -2.55 -3.75 5.57