# vtk DataFile Version 2.0
VTK from Matlab
ASCII
DATASET POLYDATA
POINTS 51366 float
19.00 16.00 11.00 19.00 15.89 10.66 18.98 15.78 10.36 
18.96 15.65 10.12 18.92 15.52 9.89 18.87 15.40 9.67 
18.80 15.27 9.46 18.72 15.13 9.22 18.61 14.92 8.91 
18.43 14.61 8.62 18.19 14.36 8.26 21.00 17.00 11.00 
20.87 16.51 10.28 20.79 16.27 10.11 20.72 16.00 10.01 
20.63 15.72 9.94 20.54 15.44 9.80 20.48 15.21 9.67 
20.43 15.01 9.55 20.37 14.77 9.39 20.26 14.35 9.16 
20.13 13.91 8.61 21.00 18.00 11.00 20.78 17.42 10.46 
20.67 17.05 10.09 20.62 16.57 10.03 20.61 16.19 10.00 
20.53 15.79 9.87 20.42 15.45 9.68 20.34 15.20 9.50 
20.26 14.96 9.33 20.12 14.51 9.11 19.91 14.02 8.39 
20.00 19.00 11.00 19.36 18.20 10.83 19.03 17.79 10.18 
18.75 17.54 9.58 18.56 17.37 9.54 18.39 17.20 9.46 
18.25 17.06 9.32 18.15 16.98 9.11 18.13 16.95 8.91 
18.01 16.93 8.27 17.72 16.93 7.70 19.00 20.00 11.00 
18.20 19.36 10.83 17.79 19.03 10.18 17.54 18.75 9.58 
17.37 18.56 9.54 17.20 18.39 9.46 17.06 18.25 9.32 
16.98 18.15 9.11 16.95 18.13 8.91 16.93 18.01 8.27 
16.93 17.72 7.70 19.00 21.00 11.00 19.00 21.00 11.03 
18.25 20.84 10.93 17.65 20.61 10.47 17.26 20.47 10.04 
16.89 20.50 9.94 16.40 20.54 9.95 15.88 20.48 9.81 
15.45 20.36 9.51 15.17 20.25 9.29 14.75 20.10 9.07 
14.20 19.84 8.07 18.00 15.00 12.00 18.04 14.88 11.59 
18.05 14.79 11.27 18.03 14.68 11.02 17.99 14.49 10.81 
17.95 14.32 10.57 17.89 14.18 10.34 17.78 13.99 10.11 
17.57 13.67 9.96 17.29 13.25 9.56 17.15 13.05 9.36 
17.00 16.00 12.00 16.86 15.77 11.40 16.84 15.69 11.20 
16.78 15.58 11.05 16.68 15.43 10.89 16.58 15.27 10.70 
16.50 15.11 10.51 16.39 14.89 10.34 16.19 14.59 10.21 
15.90 14.23 9.92 15.57 13.97 9.72 22.00 16.00 12.00 
21.70 15.36 11.16 21.49 15.39 10.96 21.26 15.56 10.83 
21.03 15.64 10.58 20.85 15.56 10.29 20.73 15.34 10.05 
20.69 14.99 9.82 20.68 14.66 9.60 20.63 14.20 9.29 
20.58 13.83 8.82 19.00 17.00 12.00 18.53 16.60 11.73 
18.29 16.09 11.14 18.20 15.68 10.82 18.09 15.31 10.66 
18.00 14.98 10.45 17.96 14.73 10.17 17.89 14.54 9.86 
17.78 14.25 9.60 17.55 13.83 9.18 17.44 13.63 8.96 
15.00 18.00 12.00 14.88 18.04 11.59 14.79 18.05 11.27 
14.67 18.03 11.02 14.49 17.99 10.81 14.32 17.95 10.57 
14.18 17.89 10.34 13.99 17.78 10.11 13.67 17.57 9.96 
13.25 17.29 9.56 13.05 17.15 9.36 20.00 18.00 12.00 
20.00 18.01 12.03 20.00 18.02 12.04 19.59 17.56 11.91 
19.14 17.02 11.70 18.70 16.54 11.26 18.52 16.14 10.61 
18.42 15.77 10.22 18.34 15.57 9.94 18.26 15.38 9.60 
18.15 15.15 9.21 17.84 14.87 8.87 17.24 14.60 8.37 
16.00 19.00 12.00 15.20 18.70 10.98 15.15 18.66 10.91 
15.03 18.60 10.79 14.86 18.53 10.64 14.65 18.42 10.44 
14.47 18.32 10.23 14.27 18.23 9.99 13.96 18.09 9.80 
13.37 17.84 9.23 13.20 17.78 9.07 21.00 19.00 12.00 
20.98 18.97 11.99 20.96 18.95 11.98 20.94 18.93 11.96 
20.92 18.90 11.95 20.90 18.88 11.94 20.88 18.86 11.92 
20.86 18.84 11.91 20.84 18.81 11.88 20.82 18.79 11.85 
20.78 18.75 11.79 20.57 18.56 11.34 20.28 18.03 10.94 
20.00 17.56 10.31 19.95 17.26 9.95 20.01 16.94 9.90 
20.10 16.50 9.96 20.06 15.98 9.79 19.85 15.48 9.29 
19.66 15.13 8.93 19.42 14.54 7.75 17.00 20.00 12.00 
16.51 19.52 11.88 15.89 19.15 11.29 15.56 19.08 10.62 
15.40 19.02 10.28 15.25 18.93 9.98 15.16 18.84 9.71 
15.04 18.73 9.41 14.85 18.60 9.06 14.52 18.41 8.74 
14.26 18.16 8.36 22.00 20.00 12.00 21.98 19.94 12.06 
21.97 19.87 12.10 21.95 19.80 12.12 21.94 19.71 12.14 
21.92 19.62 12.14 21.91 19.52 12.13 21.88 19.40 12.11 
21.85 19.27 12.07 21.81 19.12 12.01 21.77 18.95 11.91 
21.51 18.89 11.34 21.29 18.35 10.99 21.09 17.66 10.56 
20.94 17.20 10.06 20.91 16.62 9.91 20.88 15.98 9.80 
20.80 15.47 9.51 20.76 15.11 9.31 20.69 14.62 9.15 
20.61 14.01 8.37 18.00 21.00 12.00 18.01 21.00 12.01 
18.01 21.00 12.02 18.01 20.99 12.02 17.56 20.68 11.97 
17.00 20.32 11.85 16.31 19.86 11.59 15.69 19.62 10.86 
15.55 19.56 10.32 15.35 19.44 9.97 15.17 19.31 9.63 
14.98 19.16 9.23 14.55 19.02 8.71 14.16 18.94 8.27 
23.00 21.00 12.00 22.93 21.05 12.03 22.85 21.08 12.06 
22.77 21.09 12.08 22.68 21.08 12.09 22.57 21.06 12.09 
22.44 21.02 12.08 22.26 20.96 12.06 22.01 20.86 11.95 
21.65 20.67 11.89 21.28 20.44 11.37 21.04 20.07 11.15 
20.81 19.61 10.96 20.55 18.97 10.79 20.17 18.13 10.50 
19.97 17.75 9.89 19.95 17.52 9.50 19.89 17.30 9.22 
19.81 17.09 8.90 19.78 16.87 8.53 19.69 16.42 7.93 
20.00 22.00 12.00 19.94 21.98 12.06 19.87 21.97 12.10 
19.80 21.95 12.12 19.71 21.94 12.14 19.62 21.92 12.14 
19.52 21.91 12.13 19.40 21.88 12.11 19.27 21.85 12.07 
19.12 21.81 12.01 18.95 21.77 11.91 18.89 21.51 11.34 
18.35 21.29 10.99 17.66 21.09 10.56 17.20 20.94 10.06 
16.62 20.91 9.91 15.98 20.88 9.80 15.47 20.80 9.51 
15.11 20.76 9.31 14.62 20.69 9.15 14.01 20.61 8.37 
19.00 23.00 12.00 19.01 22.99 12.02 19.02 22.98 12.03 
19.02 22.98 12.05 19.03 22.97 12.05 19.03 22.96 12.06 
19.04 22.95 12.05 19.04 22.94 12.02 19.03 22.94 11.99 
19.03 22.93 11.94 19.01 22.93 11.85 18.86 22.66 11.37 
18.39 22.44 11.00 17.79 22.25 10.58 17.42 22.06 10.08 
17.01 21.89 9.81 16.43 21.75 9.70 15.92 21.61 9.48 
15.48 21.49 9.20 15.08 21.45 8.83 14.47 21.45 7.99 
20.00 13.00 13.00 20.00 12.56 12.56 19.91 12.24 12.24 
19.87 12.22 12.22 19.84 12.19 12.19 19.82 12.15 12.15 
19.83 12.09 12.09 19.91 12.02 12.02 19.89 11.63 11.63 
19.64 11.23 11.23 19.31 10.93 10.93 20.00 14.00 13.00 
19.82 13.12 12.19 19.74 13.01 11.98 19.61 13.00 11.77 
19.50 12.94 11.54 19.41 12.85 11.33 19.33 12.70 11.15 
19.23 12.50 11.00 19.10 12.21 10.78 18.93 11.96 10.60 
18.73 11.79 10.49 17.00 15.00 13.00 16.58 14.30 12.10 
16.58 14.16 12.03 16.54 13.97 11.93 16.45 13.69 11.80 
16.44 13.44 11.68 16.45 13.25 11.51 16.44 13.10 11.31 
16.26 12.97 11.07 15.89 12.60 10.73 15.73 12.51 10.62 
22.00 15.00 13.00 21.81 14.34 12.71 21.58 13.73 12.09 
21.46 13.49 11.60 21.32 13.35 11.25 21.17 13.28 11.00 
20.99 13.26 10.79 20.78 13.22 10.57 20.58 13.16 10.14 
20.48 13.07 9.78 20.38 12.71 9.24 17.00 16.00 13.00 
16.20 14.96 11.95 16.27 14.82 11.97 16.39 14.65 11.93 
16.49 14.47 11.85 16.55 14.25 11.75 16.54 13.93 11.62 
16.52 13.54 11.42 16.43 13.29 11.15 16.14 12.86 10.73 
15.80 12.58 10.48 22.00 16.00 13.00 22.00 16.03 13.04 
22.00 16.06 13.08 22.00 16.08 13.10 21.82 16.20 13.23 
21.61 16.18 13.21 21.41 16.17 13.18 21.21 16.16 13.15 
20.99 16.17 13.13 20.78 16.19 13.11 20.51 16.22 13.13 
20.19 16.22 13.22 19.66 16.11 12.51 18.92 15.09 12.01 
16.00 17.00 13.00 14.96 16.20 11.95 14.82 16.27 11.97 
14.65 16.39 11.93 14.47 16.49 11.85 14.25 16.55 11.75 
13.93 16.55 11.62 13.54 16.52 11.41 13.29 16.43 11.15 
12.86 16.14 10.73 12.58 15.80 10.48 21.00 17.00 13.00 
21.02 16.99 12.97 21.04 16.99 12.95 21.05 16.98 12.92 
21.07 16.97 12.90 21.09 16.97 12.88 21.10 16.96 12.85 
21.12 16.95 12.83 21.13 16.93 12.80 21.15 16.91 12.75 
21.17 16.88 12.67 20.88 16.72 12.25 20.56 16.21 11.84 
20.28 15.50 11.09 20.13 15.51 10.73 20.01 15.49 10.35 
19.87 15.35 10.01 19.73 15.14 9.73 19.58 14.96 9.39 
19.40 14.52 8.95 19.25 14.07 8.35 14.00 18.00 13.00 
13.77 17.80 12.46 13.73 17.65 12.20 13.72 17.47 11.96 
13.64 17.27 11.73 13.52 17.14 11.51 13.41 17.05 11.32 
13.31 17.00 11.17 13.20 16.74 11.02 12.53 16.27 10.49 
12.36 16.11 10.34 19.00 18.00 13.00 18.99 18.03 12.94 
18.99 18.06 12.88 18.62 17.97 12.28 18.17 17.48 11.92 
17.70 16.86 11.52 17.46 16.43 10.92 17.24 16.07 10.71 
16.99 15.86 10.45 16.75 15.61 10.09 16.51 15.36 9.83 
16.15 14.91 9.41 15.73 14.40 8.96 24.00 18.00 13.00 
23.96 18.01 12.88 23.93 18.02 12.76 23.89 18.03 12.66 
23.86 18.04 12.57 23.83 18.05 12.49 23.80 18.05 12.41 
23.77 18.05 12.33 23.74 18.05 12.22 23.70 18.04 12.09 
23.66 18.02 11.96 23.59 17.69 11.77 23.50 17.33 11.43 
23.38 16.97 10.99 23.20 16.69 10.44 23.01 16.45 10.15 
22.82 16.15 9.91 22.66 15.76 9.58 22.55 15.40 9.19 
22.52 15.07 8.72 22.55 14.73 8.28 16.00 19.00 13.00 
15.69 18.48 12.72 15.15 18.22 12.01 14.91 18.20 11.26 
14.71 18.15 10.91 14.45 18.09 10.63 14.26 18.02 10.35 
14.07 17.92 10.08 13.72 17.73 9.91 13.25 17.47 9.47 
13.06 17.36 9.27 21.00 19.00 13.00 21.02 18.99 12.89 
21.03 18.99 12.78 21.05 18.97 12.67 21.06 18.96 12.56 
21.06 18.94 12.46 21.06 18.92 12.35 21.06 18.89 12.23 
21.05 18.85 12.10 21.03 18.77 11.99 20.98 18.71 11.90 
20.73 18.58 11.44 20.47 18.11 11.04 20.18 17.56 10.47 
20.07 17.20 10.02 20.16 16.84 9.98 20.21 16.33 10.01 
20.12 15.79 9.74 19.94 15.38 9.32 19.74 14.99 8.99 
19.46 14.35 7.78 13.00 20.00 13.00 12.56 20.00 12.56 
12.24 19.91 12.24 12.22 19.87 12.22 12.19 19.84 12.19 
12.15 19.82 12.15 12.09 19.83 12.09 12.02 19.91 12.02 
11.63 19.89 11.63 11.23 19.64 11.23 10.93 19.31 10.93 
18.00 20.00 13.00 17.99 19.97 12.97 17.98 19.95 12.94 
17.97 19.92 12.91 17.96 19.89 12.87 17.95 19.86 12.82 
17.95 19.83 12.78 17.94 19.80 12.72 17.94 19.76 12.65 
17.93 19.71 12.55 17.93 19.65 12.40 17.51 19.26 12.10 
16.99 18.82 11.87 16.51 18.38 11.43 16.02 18.20 10.83 
15.46 18.01 10.64 15.25 17.86 10.39 14.93 17.75 10.00 
14.62 17.67 9.62 14.21 17.44 9.20 13.93 17.19 8.87 
23.00 20.00 13.00 22.94 19.99 12.76 22.90 19.97 12.57 
22.88 19.95 12.42 22.87 19.91 12.30 22.88 19.87 12.19 
22.90 19.82 12.08 22.94 19.77 11.97 23.02 19.73 11.88 
23.14 19.71 11.73 23.27 19.67 11.52 23.10 19.34 11.20 
22.92 18.87 10.89 22.75 18.24 10.59 22.56 17.88 10.13 
22.37 17.66 9.70 22.22 17.39 9.36 22.12 17.09 9.05 
22.07 16.90 8.70 22.03 16.65 8.28 22.04 16.33 7.79 
17.00 21.00 13.00 16.99 21.02 12.97 16.99 21.04 12.95 
16.98 21.05 12.92 16.97 21.07 12.90 16.97 21.09 12.88 
16.96 21.10 12.85 16.95 21.12 12.83 16.93 21.13 12.80 
16.91 21.15 12.75 16.88 21.17 12.67 16.72 20.88 12.25 
16.21 20.56 11.84 15.50 20.28 11.09 15.51 20.13 10.73 
15.49 20.01 10.35 15.35 19.87 10.01 15.14 19.73 9.73 
14.96 19.58 9.39 14.52 19.40 8.95 14.07 19.25 8.35 
22.00 21.00 13.00 21.87 20.87 12.88 21.75 20.74 12.71 
21.65 20.61 12.58 21.56 20.48 12.43 21.51 20.37 12.32 
21.46 20.27 12.22 21.42 20.16 12.14 21.35 20.03 12.06 
21.26 19.90 11.99 21.10 19.80 11.86 20.83 19.44 11.45 
20.57 18.98 11.08 20.19 18.13 10.85 19.89 17.63 10.23 
19.83 17.33 9.86 19.83 16.99 9.75 19.89 16.55 9.73 
19.85 16.05 9.47 19.65 15.64 8.91 19.45 15.26 7.55 
[...]
POINT_DATA 51366
SCALARS PathPoint float
LOOKUP_TABLE default
2.274335e-15
3.573798e-01
3.158613e-01
2.705194e-01
2.668381e-01
2.503539e-01
2.437546e-01
2.873027e-01
3.856969e-01
4.527507e-01
4.944854e-01
1.278094e-13
8.786721e-01
3.028641e-01
2.912844e-01
3.026766e-01
3.178331e-01
2.646963e-01
2.426687e-01
2.806492e-01
4.887217e-01
7.082531e-01
5.690532e-13
8.110343e-01
5.442392e-01
4.778987e-01
3.807190e-01
4.272532e-01
3.959309e-01
3.109059e-01
3.059275e-01
5.163961e-01
8.832176e-01
7.146738e-13
1.031898e+00
8.379139e-01
7.008107e-01
2.549806e-01
2.464601e-01
2.377100e-01
2.407760e-01
1.938299e-01
6.477113e-01
6.316919e-01
7.146738e-13
1.031897e+00
8.379130e-01
7.008100e-01
2.549797e-01
2.464595e-01
2.377108e-01
2.407793e-01
1.938282e-01
6.477182e-01
6.317006e-01
2.260215e-12
3.388275e-02
7.790996e-01
7.770915e-01
5.974906e-01
3.805110e-01
4.914415e-01
5.373767e-01
5.315658e-01
3.710185e-01
4.906201e-01
1.164151e+00
8.892639e-16
4.279252e-01
3.345286e-01
2.678050e-01
2.793315e-01
2.904821e-01
2.769869e-01
3.043799e-01
4.103827e-01
6.318591e-01
3.108249e-01
1.114512e-15
6.585611e-01
2.103125e-01
1.945008e-01
2.324203e-01
2.630011e-01
2.658449e-01
2.883501e-01
3.746610e-01
5.395818e-01
4.581193e-01
6.257865e-13
1.092437e+00
2.911301e-01
3.141279e-01
3.436703e-01
3.479697e-01
3.484057e-01
4.101262e-01
3.941241e-01
5.525414e-01
5.861139e-01
9.849301e-14
6.737162e-01
8.151079e-01
5.231173e-01
4.107846e-01
3.990848e-01
3.728853e-01
3.618122e-01
3.993231e-01
6.312760e-01
3.087777e-01
8.892639e-16
4.279288e-01
3.345298e-01
2.678057e-01
2.793628e-01
2.904735e-01
2.769889e-01
3.043579e-01
4.100568e-01
6.316686e-01
3.111315e-01
1.550162e-12
3.751950e-02
2.476637e-02
6.233270e-01
7.305844e-01
7.830016e-01
7.811691e-01
5.389289e-01
3.432911e-01
3.949160e-01
4.619854e-01
5.328088e-01
8.234532e-01
1.977198e-14
1.330328e+00
8.834248e-02
1.766905e-01
2.377991e-01
3.012738e-01
2.920806e-01
3.157402e-01
3.833950e-01
8.546804e-01
2.363591e-01
1.938507e-11
3.231919e-02
3.142993e-02
3.060865e-02
2.987681e-02
2.929504e-02
2.899711e-02
2.952840e-02
3.238923e-02
4.229380e-02
7.447186e-02
5.312166e-01
7.112334e-01
8.345996e-01
4.667079e-01
3.266415e-01
4.491457e-01
5.493416e-01
7.293702e-01
5.376717e-01
1.333483e+00
3.490774e-13
6.947196e-01
9.275072e-01
7.429779e-01
3.804975e-01
3.414339e-01
2.929176e-01
3.291246e-01
4.135432e-01
4.886120e-01
5.161804e-01
1.926565e-10
8.587936e-02
8.066664e-02
7.961747e-02
8.264081e-02
9.266635e-02
1.049341e-01
1.201188e-01
1.374142e-01
1.548218e-01
1.916600e-01
6.290894e-01
6.710935e-01
8.366465e-01
6.922372e-01
5.943545e-01
6.488435e-01
5.920050e-01
4.133453e-01
5.101219e-01
9.903922e-01
4.895767e-12
2.350336e-02
1.730411e-02
5.363551e-03
5.464466e-01
6.720008e-01
8.699188e-01
9.770419e-01
5.584616e-01
4.192742e-01
3.994163e-01
4.615098e-01
6.778056e-01
5.923616e-01
1.521859e-09
9.459176e-02
8.443245e-02
8.467452e-02
9.335271e-02
1.126889e-01
1.398646e-01
1.869739e-01
2.824414e-01
4.065453e-01
6.763779e-01
4.793739e-01
5.443684e-01
7.131222e-01
9.658266e-01
7.421911e-01
4.505217e-01
3.554038e-01
3.840090e-01
4.203288e-01
7.507890e-01
1.926565e-10
8.587653e-02
8.066313e-02
7.961356e-02
8.263656e-02
9.266197e-02
1.049301e-01
1.201164e-01
1.374135e-01
1.548246e-01
1.916542e-01
6.290990e-01
6.710976e-01
8.366481e-01
6.922440e-01
5.943354e-01
6.488397e-01
5.920235e-01
4.133438e-01
5.101145e-01
9.904531e-01
1.369281e-10
2.461987e-02
2.111079e-02
1.767520e-02
1.431754e-02
1.068300e-02
9.371379e-03
1.826133e-02
2.706569e-02
4.042565e-02
9.250931e-02
5.668378e-01
6.357946e-01
7.534014e-01
6.400961e-01
5.167332e-01
6.026342e-01
5.690717e-01
5.377130e-01
5.320132e-01
1.038566e+00
2.246813e-15
6.199016e-01
4.555561e-01
4.811473e-02
5.169537e-02
5.736645e-02
7.122121e-02
1.223986e-01
5.492469e-01
6.192389e-01
5.236584e-01
1.568029e-14
1.204813e+00
2.517592e-01
2.479453e-01
2.538864e-01
2.428667e-01
2.409936e-01
2.616014e-01
3.820176e-01
3.461190e-01
2.767756e-01
1.554819e-15
1.209006e+00
1.579805e-01
2.135097e-01
3.213065e-01
2.743733e-01
2.478551e-01
2.504683e-01
3.191024e-01
6.257944e-01
2.061414e-01
8.699891e-13
7.444701e-01
8.911278e-01
5.591746e-01
3.997363e-01
2.998892e-01
2.728987e-01
2.995319e-01
4.737122e-01
3.782903e-01
6.473203e-01
8.674574e-15
1.678414e+00
1.592273e-01
2.069493e-01
2.257776e-01
2.483563e-01
3.395354e-01
4.345996e-01
3.716454e-01
6.619587e-01
4.985373e-01
4.823239e-12
5.855689e-02
5.185169e-02
3.898493e-02
2.557031e-01
2.083914e-01
2.049580e-01
2.062834e-01
2.134857e-01
2.196876e-01
2.678137e-01
3.344317e-01
8.903614e-01
1.360477e+00
8.674574e-15
1.678398e+00
1.591482e-01
2.068810e-01
2.257242e-01
2.482179e-01
3.392473e-01
4.347098e-01
3.715741e-01
6.618419e-01
4.997963e-01
8.481926e-12
3.225109e-02
3.089827e-02
2.959259e-02
2.838562e-02
2.742571e-02
2.704139e-02
2.793275e-02
3.207329e-02
4.535591e-02
8.761513e-02
5.312098e-01
7.227110e-01
1.067392e+00
3.832343e-01
3.956684e-01
3.956768e-01
3.684841e-01
4.063699e-01
6.381068e-01
7.633869e-01
1.109728e-15
6.200541e-01
2.993524e-01
3.026800e-01
3.046380e-01
2.856898e-01
2.276349e-01
1.853591e-01
3.174092e-01
9.667351e-01
2.760930e-01
3.368280e-12
6.325905e-02
5.820834e-02
7.104614e-01
7.470413e-01
8.667757e-01
7.679226e-01
4.736520e-01
4.096611e-01
4.918304e-01
4.258160e-01
7.097926e-01
7.932375e-01
5.906996e-10
1.289681e-01
1.157146e-01
1.043527e-01
9.460418e-02
8.684305e-02
8.280583e-02
8.383253e-02
1.062778e-01
1.289686e-01
1.350592e-01
3.744626e-01
4.984126e-01
5.791668e-01
6.375437e-01
4.195101e-01
4.211084e-01
5.313803e-01
5.380051e-01
5.716254e-01
5.479090e-01
1.531729e-13
6.609086e-01
9.273340e-01
7.846036e-01
4.046454e-01
3.801205e-01
3.358765e-01
3.410566e-01
4.267363e-01
6.922010e-01
2.855896e-01
1.479310e-10
1.105756e-01
1.099806e-01
1.076224e-01
1.055143e-01
1.051401e-01
1.110935e-01
1.195591e-01
1.243801e-01
1.319227e-01
1.071661e-01
5.351255e-01
6.658155e-01
8.427350e-01
5.758378e-01
3.745757e-01
5.078090e-01
6.049225e-01
6.149596e-01
5.334107e-01
1.395835e+00
2.246813e-15
6.199001e-01
4.555583e-01
4.812418e-02
5.169863e-02
5.736185e-02
7.120017e-02
1.223309e-01
5.490951e-01
6.191680e-01
5.238249e-01
1.189729e-11
3.732724e-02
3.999111e-02
4.281503e-02
4.597180e-02
4.976631e-02
5.506056e-02
6.322691e-02
7.780531e-02
1.036993e-01
1.513656e-01
6.391157e-01
7.180521e-01
7.766257e-01
7.950199e-01
6.146902e-01
3.520086e-01
5.124024e-01
4.992410e-01
6.125680e-01
4.938534e-01
3.661097e-09
2.431190e-01
1.899196e-01
1.525568e-01
1.263605e-01
1.151365e-01
1.132003e-01
1.235850e-01
1.234639e-01
1.895174e-01
2.504755e-01
4.827140e-01
5.937591e-01
7.084919e-01
6.115953e-01
5.232623e-01
4.496938e-01
4.366953e-01
3.980768e-01
4.798935e-01
5.873062e-01
8.481926e-12
3.228309e-02
3.092780e-02
2.961992e-02
2.841106e-02
2.744972e-02
2.706444e-02
2.795487e-02
3.209309e-02
4.536565e-02
8.758307e-02
5.312864e-01
7.228946e-01
1.067308e+00
3.829292e-01
3.956906e-01
3.956644e-01
3.684618e-01
4.063209e-01
6.380706e-01
7.634265e-01
4.592823e-09
2.170764e-01
2.401777e-01
2.128446e-01
2.063039e-01
1.611537e-01
1.438348e-01
1.387612e-01
1.622556e-01
1.676470e-01
2.196889e-01
6.081941e-01
6.386928e-01
9.595811e-01
8.426445e-01
4.782391e-01
3.508327e-01
4.434208e-01
5.647119e-01
7.173944e-01
1.417594e+00
4.823239e-12
5.855867e-02
5.185389e-02
3.898726e-02
2.556976e-01
2.083942e-01
2.049570e-01
2.062695e-01
2.134503e-01
2.196479e-01
2.678775e-01
3.346088e-01
8.913622e-01
1.359643e+00
4.592823e-09
2.170788e-01
2.401814e-01
2.128434e-01
2.063032e-01
1.611537e-01
1.438363e-01
1.387705e-01
1.622638e-01
1.676659e-01
2.197424e-01
6.081603e-01
6.386926e-01
9.595788e-01
8.426122e-01
4.782025e-01
3.508288e-01
4.434385e-01
5.646944e-01
7.174055e-01
1.417813e+00
1.211034e-11
6.879148e-02
6.779684e-02
6.850053e-02
7.133061e-02
7.645654e-02
8.353891e-02
9.098799e-02
9.577307e-02
8.865891e-02
4.571528e-02
3.157218e-01
2.142813e-01
2.485641e-01
3.596775e-01
5.596934e-01
9.844674e-01
1.197616e+00
6.230248e-01
1.245507e+00
1.074807e+00
1.149281e-08
2.233007e-01
2.583788e-01
2.913421e-01
3.295993e-01
2.580595e-01
2.180846e-01
2.262576e-01
2.644094e-01
2.818833e-01
3.033540e-01
6.440693e-01
6.671130e-01
8.529541e-01
7.273516e-01
5.844567e-01
6.601135e-01
5.905261e-01
4.329686e-01
4.999301e-01
1.077120e+00
5.906996e-10
1.289715e-01
1.157177e-01
1.043555e-01
9.460673e-02
8.684555e-02
8.280893e-02
8.383673e-02
1.062847e-01
1.289774e-01
1.350645e-01
3.744621e-01
4.984096e-01
5.791732e-01
6.375696e-01
4.195219e-01
4.211292e-01
5.314307e-01
5.379931e-01
5.716487e-01
5.479530e-01
1.177068e-09
1.212685e-01
1.119070e-01
7.627856e-02
7.493251e-02
7.512918e-02
7.727751e-02
1.222454e-01
1.443340e-01
1.809703e-01
2.416037e-01
4.395214e-01
4.992359e-01
5.200214e-01
4.935923e-01
4.290394e-01
4.042827e-01
3.999460e-01
4.116229e-01
4.041120e-01
3.585465e-01
4.417329e-15
9.101926e-01
9.710647e-02
1.533907e-01
1.997166e-01
2.807186e-01
4.054990e-01
3.542034e-01
5.696082e-01
1.134561e+00
1.448146e+00
3.478938e-16
4.874296e-01
3.251746e-01
4.588042e-01
4.453160e-01
4.064191e-01
3.012805e-01
2.908841e-01
3.563104e-01
6.136441e-01
4.007097e-01
3.444590e-13
9.229302e-01
1.026070e+00
1.280405e-01
1.546092e-01
1.957856e-01
2.315901e-01
2.420350e-01
5.969644e-01
6.910542e-01
5.190670e-01
2.172751e-15
1.563347e+00
1.040713e-01
1.961690e-01
2.400665e-01
2.245283e-01
2.132725e-01
3.093261e-01
4.035818e-01
3.910930e-01
2.813011e-01
2.132639e-12
6.376091e-02
7.715298e-01
9.227140e-01
1.058284e+00
3.348991e-01
3.796702e-01
3.850337e-01
3.195796e-01
5.098428e-01
5.242066e-01
4.114774e-01
3.478938e-16
4.873978e-01
3.250711e-01
4.587251e-01
4.454201e-01
4.064639e-01
3.013070e-01
2.909299e-01
3.563691e-01
6.137030e-01
4.004603e-01
1.057844e-12
3.597560e-02
6.185605e-01
6.930065e-01
1.004575e+00
9.204805e-01
5.181963e-01
4.391029e-01
3.859783e-01
4.344654e-01
6.962193e-01
2.885689e-01
1.857263e-10
2.106061e-01
2.097148e-01
2.255207e-01
2.159698e-01
1.657998e-01
1.234566e-01
9.094291e-02
7.378008e-02
5.605395e-02
2.206081e-01
6.745008e-01
7.093564e-01
8.212996e-01
1.065139e+00
8.965923e-01
4.884735e-01
3.844327e-01
6.283476e-01
4.939030e-01
5.381203e-01
6.020541e-14
1.319339e-01
8.509556e-02
6.890275e-02
9.314288e-02
1.302199e-01
1.220530e-01
3.555603e-01
1.438875e+00
1.599348e+00
1.446212e+00
5.809038e-11
1.317625e-01
1.258044e-01
1.213106e-01
1.211731e-01
1.279329e-01
1.360318e-01
1.468947e-01
1.538271e-01
1.701114e-01
1.180783e-01
5.597707e-01
6.644216e-01
1.062250e+00
7.747584e-01
4.324583e-01
3.567485e-01
3.666849e-01
4.522397e-01
5.639410e-01
5.189833e-01
1.109728e-15
6.200515e-01
2.993464e-01
3.026799e-01
3.046381e-01
2.856887e-01
2.276309e-01
1.853496e-01
3.173896e-01
9.667783e-01
2.760860e-01
5.850858e-12
3.522419e-02
3.645589e-02
7.487359e-01
8.746003e-01
9.057201e-01
9.911820e-01
5.938149e-01
5.046998e-01
4.781790e-01
3.514630e-01
9.118350e-01
4.567139e-01
1.795244e-09
1.069272e-01
1.146286e-01
1.313333e-01
1.578965e-01
2.006574e-01
2.581316e-01
3.626176e-01
6.534137e-01
4.533030e-01
3.102984e-01
5.597684e-01
6.908342e-01
1.004064e+00
6.451536e-01
3.777723e-01
3.872716e-01
3.659380e-01
3.996070e-01
6.449847e-01
7.769344e-01
1.909232e-13
3.624040e-01
3.846500e-01
5.944732e-01
9.165937e-01
6.869633e-01
1.780770e-01
2.388796e-01
3.883253e-01
8.186499e-01
2.365608e+00
3.200298e-10
1.216921e-01
1.036022e-01
1.317349e-01
1.463518e-01
1.733214e-01
1.991023e-01
2.226165e-01
2.336004e-01
2.430261e-01
3.479758e-01
6.691864e-01
7.042297e-01
7.975434e-01
8.805430e-01
6.249837e-01
3.655408e-01
5.208202e-01
5.218347e-01
5.739130e-01
3.960850e-01
3.124611e-08
1.461414e-01
1.691203e-01
2.044862e-01
2.529381e-01
2.697454e-01
2.633602e-01
2.895249e-01
2.991604e-01
4.386675e-01
5.138697e-01
4.458450e-01
5.234578e-01
6.162699e-01
5.936155e-01
4.976321e-01
4.579621e-01
4.430455e-01
4.344328e-01
4.669703e-01
4.371187e-01
1.845366e-11
1.213794e-01
1.183613e-01
1.136456e-01
1.078852e-01
1.023295e-01
9.755296e-02
9.525706e-02
7.702773e-02
8.572050e-02
9.574777e-02
5.473429e-01
6.649542e-01
9.390664e-01
9.649716e-01
5.526576e-01
4.412164e-01
3.840567e-01
4.305913e-01
7.182663e-01
2.871204e-01
9.870268e-09
2.293249e-01
3.004383e-01
3.375921e-01
4.173140e-01
4.044546e-01
2.872888e-01
2.749766e-01
2.869141e-01
3.626451e-01
3.260365e-01
5.115062e-01
6.140211e-01
8.513603e-01
9.386825e-01
4.670341e-01
4.359138e-01
4.337655e-01
3.698831e-01
6.173407e-01
7.975232e-01
3.444590e-13
9.229273e-01
1.026073e+00
1.280227e-01
1.545898e-01
1.957704e-01
2.315875e-01
2.420526e-01
5.970377e-01
6.910748e-01
5.189065e-01
1.004832e-09
2.068589e-01
1.846191e-01
1.730121e-01
1.585618e-01
1.702140e-01
1.838532e-01
1.952185e-01
2.184630e-01
3.282083e-01
2.923843e-01
5.981546e-01
7.012144e-01
9.348522e-01
1.010005e+00
4.531330e-01
3.663772e-01
3.754075e-01
4.886307e-01
6.463348e-01
5.029153e-01
1.718008e-07
5.212004e-01
3.205102e-01
2.862524e-01
3.053058e-01
3.651322e-01
3.402188e-01
2.771461e-01
2.246915e-01
2.286161e-01
3.462132e-01
4.767357e-01
5.793412e-01
7.489862e-01
6.465423e-01
5.611002e-01
4.706928e-01
4.543898e-01
3.927293e-01
5.109205e-01
6.002955e-01
3.312709e-11
4.625102e-02
4.342338e-02
4.136520e-02
4.010964e-02
3.949647e-02
4.038838e-02
5.987680e-02
6.943018e-02
7.889152e-02
9.006105e-02
6.242718e-01
6.859799e-01
8.619453e-01
1.093557e+00
6.448638e-01
4.105243e-01
3.328536e-01
5.715129e-01
4.929264e-01
5.279261e-01
3.089362e-08
5.948379e-01
5.406913e-01
3.079319e-01
2.789202e-01
1.919388e-01
1.621599e-01
1.511396e-01
1.756011e-01
1.862863e-01
2.320245e-01
6.021864e-01
6.379501e-01
9.439314e-01
8.319637e-01
4.748842e-01
3.543324e-01
4.569854e-01
5.776718e-01
7.008908e-01
1.487774e+00
2.439008e-12
7.781968e-01
5.667847e-01
4.791931e-01
5.539542e-01
7.080746e-01
4.779796e-01
3.113253e-01
3.309520e-01
3.613526e-01
1.506859e+00
7.040955e-09
1.227870e-01
1.354794e-01
1.728012e-01
2.232952e-01
3.058018e-01
2.775608e-01
3.029077e-01
3.046679e-01
3.547020e-01
3.205383e-01
4.595831e-01
5.560723e-01
7.542567e-01
8.186203e-01
5.889938e-01
5.041979e-01
4.796128e-01
4.250914e-01
4.921951e-01
5.761685e-01
1.194717e-06
6.866964e-01
3.037568e-01
2.555223e-01
3.179163e-01
5.018724e-01
6.754114e-01
7.965815e-01
5.289803e-01
3.875302e-01
6.285623e-01
5.897394e-01
6.333531e-01
8.897434e-01
8.264433e-01
5.672887e-01
6.578575e-01
5.777004e-01
5.540014e-01
4.817887e-01
1.364276e+00
1.570617e-08
1.449277e-01
1.616970e-01
2.002472e-01
2.284732e-01
3.074833e-01
3.132268e-01
4.162446e-01
4.157930e-01
4.108096e-01
2.796924e-01
3.849483e-01
5.068863e-01
6.609510e-01
7.622082e-01
5.249120e-01
5.839276e-01
5.361613e-01
4.388425e-01
5.143611e-01
5.765982e-01
3.701411e-10
8.144394e-02
8.108245e-02
8.954611e-02
1.147224e-01
1.510870e-01
1.964360e-01
2.425418e-01
2.406762e-01
2.502070e-01
1.848293e-01
3.525306e-01
4.077494e-01
5.253401e-01
6.869784e-01
6.581321e-01
3.442420e-01
3.173628e-01
5.498849e-01
8.932329e-01
1.298330e+00
3.414114e-07
5.382514e-01
3.138213e-01
2.822046e-01
2.891868e-01
2.998392e-01
3.379623e-01
3.008938e-01
2.711703e-01
2.235525e-01
2.368448e-01
4.795406e-01
5.395851e-01
5.866843e-01
4.738745e-01
4.588055e-01
4.179330e-01
4.404672e-01
4.752000e-01
3.927106e-01
3.598102e-01
1.257670e-14
8.027194e-01
1.682117e-01
1.670128e-01
1.880478e-01
3.145774e-01
3.417025e-01
3.342586e-01
3.438836e-01
6.622254e-01
5.710413e-01
6.928051e-15
1.425399e+00
1.573699e-01
2.333601e-01
2.688910e-01
2.714549e-01
2.854750e-01
3.208165e-01
3.836616e-01
5.966368e-01
3.374957e-01
2.186067e-12
8.337448e-01
5.397725e-01
4.332782e-01
4.907526e-01
5.293695e-01
4.924233e-01
4.235475e-01
3.782885e-01
3.711782e-01
3.667741e-01
4.813200e-14
7.901004e-01
1.005800e+00
9.870231e-01
3.279356e-01
3.390887e-01
3.142432e-01
3.237669e-01
3.689266e-01
5.543765e-01
2.010084e-01
1.506899e-11
7.132637e-02
7.214318e-02
7.306514e-02
7.290477e-02
7.320499e-02
7.284859e-02
7.071185e-02
6.741715e-02
6.092086e-02
1.216692e-01
6.434987e-01
7.242155e-01
7.926508e-01
1.103306e+00
7.972587e-01
4.967617e-01
4.129403e-01
6.197281e-01
5.226940e-01
5.151607e-01
1.352929e-14
9.901204e-01
7.867645e-01
2.221161e-01
3.819385e-01
5.599385e-01
5.704815e-01
7.314179e-01
5.840598e-01
5.692946e-01
2.336382e-01
1.314256e-11
3.651324e-02
3.197199e-02
3.132981e-02
3.490939e-02
4.081931e-02
5.690302e-02
8.091893e-02
1.104713e-01
1.842133e-01
2.955742e-01
8.267975e-01
7.728600e-01
9.529085e-01
8.610960e-01
3.598062e-01
3.595077e-01
2.922583e-01
5.344558e-01
6.746552e-01
6.666102e-01
3.112874e-16
4.025172e-01
4.015216e-01
4.483333e-01
4.693841e-01
3.964927e-01
3.600375e-01
3.650814e-01
3.442473e-01
4.423891e-01
2.118995e-01
1.649513e-12
1.019751e-01
5.098804e-01
3.740799e-01
4.371370e-01
6.419773e-01
1.039923e+00
6.808748e-01
7.035930e-01
9.369338e-01
7.171217e-01
1.730869e-01
5.079393e-10
6.338029e-02
8.196020e-02
7.859413e-02
1.250731e-01
1.123892e-01
1.025989e-01
9.294086e-02
4.885284e-02
4.271436e-02
2.675952e-01
7.411798e-01
7.361400e-01
6.755402e-01
9.580039e-01
1.266771e+00
6.526992e-01
4.812976e-01
5.784699e-01
6.309613e-01
4.683874e-01
1.082623e-14
9.119402e-01
8.996170e-01
4.156680e-01
3.526619e-01
3.576033e-01
3.595559e-01
3.245484e-01
3.464934e-01
5.260086e-01
1.788731e-01
3.208933e-11
4.147554e-02
6.355564e-02
6.001165e-02
5.639658e-02
6.603502e-02
7.866910e-02
1.029804e-01
1.440631e-01
1.544081e-01
4.521537e-01
6.944787e-01
5.441516e-01
6.282359e-01
9.920955e-01
1.113563e+00
6.726703e-01
4.613877e-01
4.507960e-01
7.311400e-01
3.112744e-01
5.546213e-09
3.855228e-01
3.461096e-01
2.595918e-01
2.266895e-01
1.735598e-01
1.353818e-01
1.107539e-01
9.096061e-02
7.215050e-02
2.746671e-01
6.930034e-01
7.032479e-01
8.338211e-01
1.056577e+00
9.356205e-01
4.897439e-01
3.824230e-01
6.280935e-01
4.927727e-01
5.384112e-01
4.813200e-14
7.900918e-01
1.005805e+00
9.871337e-01
3.279338e-01
3.390474e-01
3.140929e-01
3.235985e-01
3.690308e-01
5.544996e-01
2.011985e-01
1.410915e-10
1.026707e-01
8.005109e-02
6.385194e-02
8.671584e-02
7.572913e-02
8.384091e-02
8.963608e-02
9.287940e-02
1.082376e-01
4.885453e-01
6.349310e-01
3.891748e-01
3.168072e-01
5.206233e-01
9.464530e-01
1.108190e+00
7.114442e-01
6.124645e-01
8.477486e-01
7.261744e-01
2.420907e-08
2.010741e-01
2.395422e-01
3.265521e-01
4.873834e-01
5.435947e-01
4.563941e-01
4.097344e-01
3.938388e-01
5.563138e-01
3.015697e-01
5.017613e-01
2.849694e-01
1.755476e-01
1.958999e-01
3.492046e-01
6.309742e-01
1.168824e+00
3.150083e-01
2.775243e-01
4.971454e-01
1.909232e-13
3.623993e-01
3.846428e-01
5.944596e-01
9.165810e-01
6.870188e-01
1.780808e-01
2.388905e-01
3.883590e-01
8.187105e-01
2.365698e+00
5.539031e-10
4.953657e-02
6.589088e-02
7.639683e-02
8.864824e-02
9.036695e-02
9.006135e-02
8.869095e-02
5.354244e-02
5.082601e-02
4.587622e-01
8.638065e-01
8.902645e-01
9.486765e-01
1.031324e+00
7.496097e-01
5.181027e-01
5.139073e-01
3.981497e-01
9.106434e-01
4.028035e-01
9.437228e-08
3.887865e-01
3.051683e-01
2.745104e-01
2.746316e-01
3.433162e-01
3.415585e-01
4.596688e-01
3.992085e-01
4.049606e-01
2.959402e-01
3.894744e-01
5.134825e-01
6.790841e-01
7.717838e-01
5.437512e-01
5.726895e-01
5.136140e-01
4.309454e-01
5.027018e-01
5.811454e-01
6.756284e-13
2.376164e-01
2.338613e-01
2.630341e-01
2.964738e-01
3.440188e-01
4.498220e-01
5.880514e-01
1.456158e+00
5.314187e-01
8.797280e-02
1.941748e-09
2.591393e-01
1.898471e-01
2.504069e-01
2.247779e-01
1.855667e-01
1.574393e-01
2.046016e-01
3.051854e-01
4.342971e-01
6.375359e-01
6.764920e-01
6.878913e-01
8.025586e-01
8.701011e-01
6.888906e-01
4.294631e-01
5.687662e-01
4.935120e-01
6.722392e-01
5.412821e-01
3.286231e-07
1.088441e+00
2.433070e-01
2.483538e-01
2.721820e-01
3.577304e-01
3.493345e-01
4.109903e-01
3.938333e-01
3.744935e-01
2.392806e-01
3.918537e-01
5.044648e-01
6.612099e-01
7.829616e-01
5.261291e-01
5.943736e-01
5.438771e-01
4.413417e-01
5.180481e-01
5.945436e-01
2.132639e-12
6.375608e-02
7.715273e-01
9.227028e-01
1.058297e+00
3.349000e-01
3.796833e-01
3.850499e-01
3.195873e-01
5.098663e-01
5.242042e-01
4.114152e-01
6.078168e-09
3.229870e-01
2.926662e-01
3.524988e-01
3.911149e-01
4.704293e-01
3.637494e-01
3.720557e-01
5.506666e-01
3.878469e-01
3.804201e-01
5.790492e-01
6.991253e-01
9.970054e-01
7.031419e-01
3.989329e-01
3.795783e-01