# vtk DataFile Version 2.0
VTK from Matlab
ASCII
DATASET STRUCTURED_GRID
DIMENSIONS 7393 1 1
POINTS 7393 float
19.00 16.00 11.00 17.00 17.00 11.00 18.00 17.00 11.00 19.00 17.00 11.00 20.00 17.00 11.00 21.00 17.00 11.00 17.00 18.00 11.00 18.00 18.00 11.00 19.00 18.00 11.00 20.00 18.00 11.00 21.00 18.00 11.00 16.00 19.00 11.00 17.00 19.00 11.00 18.00 19.00 11.00 19.00 19.00 11.00 20.00 19.00 11.00 21.00 19.00 11.00 22.00 19.00 11.00 17.00 20.00 11.00 18.00 20.00 11.00 19.00 20.00 11.00 20.00 20.00 11.00 21.00 20.00 11.00 17.00 21.00 11.00 18.00 21.00 11.00 19.00 21.00 11.00 20.00 21.00 11.00 21.00 21.00 11.00 19.00 22.00 11.00 17.00 15.00 12.00 18.00 15.00 12.00 19.00 15.00 12.00 20.00 15.00 12.00 21.00 15.00 12.00 16.00 16.00 12.00 17.00 16.00 12.00 18.00 16.00 12.00 19.00 16.00 12.00 20.00 16.00 12.00 21.00 16.00 12.00 22.00 16.00 12.00 15.00 17.00 12.00 16.00 17.00 12.00 17.00 17.00 12.00 18.00 17.00 12.00 19.00 17.00 12.00 20.00 17.00 12.00 21.00 17.00 12.00 22.00 17.00 12.00 23.00 17.00 12.00 15.00 18.00 12.00 16.00 18.00 12.00 17.00 18.00 12.00 18.00 18.00 12.00 19.00 18.00 12.00 20.00 18.00 12.00 21.00 18.00 12.00 22.00 18.00 12.00 23.00 18.00 12.00 15.00 19.00 12.00 16.00 19.00 12.00 17.00 19.00 12.00 18.00 19.00 12.00 19.00 19.00 12.00 20.00 19.00 12.00 21.00 19.00 12.00 22.00 19.00 12.00 23.00 19.00 12.00 15.00 20.00 12.00 16.00 20.00 12.00 17.00 20.00 12.00 18.00 20.00 12.00 19.00 20.00 12.00 20.00 20.00 12.00 21.00 20.00 12.00 22.00 20.00 12.00 23.00 20.00 12.00 15.00 21.00 12.00 16.00 21.00 12.00 17.00 21.00 12.00 18.00 21.00 12.00 19.00 21.00 12.00 20.00 21.00 12.00 21.00 21.00 12.00 22.00 21.00 12.00 23.00 21.00 12.00 16.00 22.00 12.00 17.00 22.00 12.00 18.00 22.00 12.00 19.00 22.00 12.00 20.00 22.00 12.00 21.00 22.00 12.00 22.00 22.00 12.00 17.00 23.00 12.00 18.00 23.00 12.00 19.00 23.00 12.00 20.00 23.00 12.00 21.00 23.00 12.00 18.00 13.00 13.00 19.00 13.00 13.00 20.00 13.00 13.00 16.00 14.00 13.00 17.00 14.00 13.00 18.00 14.00 13.00 19.00 14.00 13.00 20.00 14.00 13.00 21.00 14.00 13.00 22.00 14.00 13.00 15.00 15.00 13.00 16.00 15.00 13.00 17.00 15.00 13.00 18.00 15.00 13.00 19.00 15.00 13.00 20.00 15.00 13.00 21.00 15.00 13.00 22.00 15.00 13.00 23.00 15.00 13.00 14.00 16.00 13.00 15.00 16.00 13.00 16.00 16.00 13.00 17.00 16.00 13.00 18.00 16.00 13.00 19.00 16.00 13.00 20.00 16.00 13.00 21.00 16.00 13.00 22.00 16.00 13.00 23.00 16.00 13.00 24.00 16.00 13.00 14.00 17.00 13.00 15.00 17.00 13.00 16.00 17.00 13.00 17.00 17.00 13.00 18.00 17.00 13.00 19.00 17.00 13.00 20.00 17.00 13.00 21.00 17.00 13.00 22.00 17.00 13.00 23.00 17.00 13.00 24.00 17.00 13.00 13.00 18.00 13.00 14.00 18.00 13.00 15.00 18.00 13.00 16.00 18.00 13.00 17.00 18.00 13.00 18.00 18.00 13.00 19.00 18.00 13.00 20.00 18.00 13.00 21.00 18.00 13.00 22.00 18.00 13.00 23.00 18.00 13.00 24.00 18.00 13.00 25.00 18.00 13.00 13.00 19.00 13.00 14.00 19.00 13.00 15.00 19.00 13.00 16.00 19.00 13.00 17.00 19.00 13.00 18.00 19.00 13.00 19.00 19.00 13.00 20.00 19.00 13.00 21.00 19.00 13.00 22.00 19.00 13.00 23.00 19.00 13.00 24.00 19.00 13.00 25.00 19.00 13.00 13.00 20.00 13.00 14.00 20.00 13.00 15.00 20.00 13.00 16.00 20.00 13.00 17.00 20.00 13.00 18.00 20.00 13.00 19.00 20.00 13.00 20.00 20.00 13.00 21.00 20.00 13.00 22.00 20.00 13.00 23.00 20.00 13.00 24.00 20.00 13.00 14.00 21.00 13.00 15.00 21.00 13.00 16.00 21.00 13.00 17.00 21.00 13.00 18.00 21.00 13.00 19.00 21.00 13.00 20.00 21.00 13.00 21.00 21.00 13.00 22.00 21.00 13.00 23.00 21.00 13.00 24.00 21.00 13.00 14.00 22.00 13.00 15.00 22.00 13.00 16.00 22.00 13.00 17.00 22.00 13.00 18.00 22.00 13.00 19.00 22.00 13.00 20.00 22.00 13.00 21.00 22.00 13.00 22.00 22.00 13.00 23.00 22.00 13.00 24.00 22.00 13.00 15.00 23.00 13.00 16.00 23.00 13.00 17.00 23.00 13.00 18.00 23.00 13.00 19.00 23.00 13.00 20.00 23.00 13.00 21.00 23.00 13.00 22.00 23.00 13.00 23.00 23.00 13.00 16.00 24.00 13.00 17.00 24.00 13.00 18.00 24.00 13.00 19.00 24.00 13.00 20.00 24.00 13.00 21.00 24.00 13.00 22.00 24.00 13.00 18.00 25.00 13.00 19.00 25.00 13.00 16.00 13.00 14.00 17.00 13.00 14.00 18.00 13.00 14.00 19.00 13.00 14.00 20.00 13.00 14.00 21.00 13.00 14.00 22.00 13.00 14.00 15.00 14.00 14.00 16.00 14.00 14.00 17.00 14.00 14.00 18.00 14.00 14.00 19.00 14.00 14.00 20.00 14.00 14.00 21.00 14.00 14.00 22.00 14.00 14.00 23.00 14.00 14.00 14.00 15.00 14.00 15.00 15.00 14.00 16.00 15.00 14.00 17.00 15.00 14.00 18.00 15.00 14.00 19.00 15.00 14.00 20.00 15.00 14.00 21.00 15.00 14.00 22.00 15.00 14.00 23.00 15.00 14.00 24.00 15.00 14.00 13.00 16.00 14.00 14.00 16.00 14.00 15.00 16.00 14.00 16.00 16.00 14.00 17.00 16.00 14.00 18.00 16.00 14.00 19.00 16.00 14.00 20.00 16.00 14.00 21.00 16.00 14.00 22.00 16.00 14.00 23.00 16.00 14.00 24.00 16.00 14.00 25.00 16.00 14.00 13.00 17.00 14.00 14.00 17.00 14.00 15.00 17.00 14.00 16.00 17.00 14.00 17.00 17.00 14.00 18.00 17.00 14.00 19.00 17.00 14.00 20.00 17.00 14.00 21.00 17.00 14.00 22.00 17.00 14.00 23.00 17.00 14.00 24.00 17.00 14.00 25.00 17.00 14.00 13.00 18.00 14.00 14.00 18.00 14.00 15.00 18.00 14.00 16.00 18.00 14.00 17.00 18.00 14.00 18.00 18.00 14.00 19.00 18.00 14.00 20.00 18.00 14.00 21.00 18.00 14.00 22.00 18.00 14.00 23.00 18.00 14.00 24.00 18.00 14.00 25.00 18.00 14.00 13.00 19.00 14.00 14.00 19.00 14.00 15.00 19.00 14.00 16.00 19.00 14.00 17.00 19.00 14.00 18.00 19.00 14.00 19.00 19.00 14.00 20.00 19.00 14.00 21.00 19.00 14.00 22.00 19.00 14.00 23.00 19.00 14.00 24.00 19.00 14.00 25.00 19.00 14.00 13.00 20.00 14.00 14.00 20.00 14.00 15.00 20.00 14.00 16.00 20.00 14.00 17.00 20.00 14.00 18.00 20.00 14.00 19.00 20.00 14.00 20.00 20.00 14.00 21.00 20.00 14.00 22.00 20.00 14.00 23.00 20.00 14.00 24.00 20.00 14.00 25.00 20.00 14.00 13.00 21.00 14.00 14.00 21.00 14.00 15.00 21.00 14.00 16.00 21.00 14.00 17.00 21.00 14.00 18.00 21.00 14.00 19.00 21.00 14.00 20.00 21.00 14.00 21.00 21.00 14.00 22.00 21.00 14.00 23.00 21.00 14.00 24.00 21.00 14.00 25.00 21.00 14.00 13.00 22.00 14.00 14.00 22.00 14.00 15.00 22.00 14.00 16.00 22.00 14.00 17.00 22.00 14.00 18.00 22.00 14.00 19.00 22.00 14.00 20.00 22.00 14.00 21.00 22.00 14.00 22.00 22.00 14.00 23.00 22.00 14.00 24.00 22.00 14.00 25.00 22.00 14.00 14.00 23.00 14.00 15.00 23.00 14.00 16.00 23.00 14.00 17.00 23.00 14.00 18.00 23.00 14.00 19.00 23.00 14.00 20.00 23.00 14.00 21.00 23.00 14.00 22.00 23.00 14.00 23.00 23.00 14.00 24.00 23.00 14.00 15.00 24.00 14.00 16.00 24.00 14.00 17.00 24.00 14.00 18.00 24.00 14.00 19.00 24.00 14.00 20.00 24.00 14.00 21.00 24.00 14.00 22.00 24.00 14.00 23.00 24.00 14.00 16.00 25.00 14.00 17.00 25.00 14.00 18.00 25.00 14.00 19.00 25.00 14.00 20.00 25.00 14.00 21.00 25.00 14.00 22.00 25.00 14.00 17.00 12.00 15.00 18.00 12.00 15.00 19.00 12.00 15.00 20.00 12.00 15.00 21.00 12.00 15.00 15.00 13.00 15.00 16.00 13.00 15.00 17.00 13.00 15.00 18.00 13.00 15.00 19.00 13.00 15.00 20.00 13.00 15.00 21.00 13.00 15.00 22.00 13.00 15.00 23.00 13.00 15.00 14.00 14.00 15.00 15.00 14.00 15.00 16.00 14.00 15.00 17.00 14.00 15.00 18.00 14.00 15.00 19.00 14.00 15.00 20.00 14.00 15.00 21.00 14.00 15.00 22.00 14.00 15.00 23.00 14.00 15.00 24.00 14.00 15.00 13.00 15.00 15.00 14.00 15.00 15.00 15.00 15.00 15.00 16.00 15.00 15.00 17.00 15.00 15.00 18.00 15.00 15.00 19.00 15.00 15.00 20.00 15.00 15.00 21.00 15.00 15.00 22.00 15.00 15.00 23.00 15.00 15.00 24.00 15.00 15.00 25.00 15.00 15.00 13.00 16.00 15.00 14.00 16.00 15.00 15.00 16.00 15.00 16.00 16.00 15.00 17.00 16.00 15.00 18.00 16.00 15.00 19.00 16.00 15.00 20.00 16.00 15.00 21.00 16.00 15.00 22.00 16.00 15.00 23.00 16.00 15.00 24.00 16.00 15.00 25.00 16.00 15.00 12.00 17.00 15.00 13.00 17.00 15.00 14.00 17.00 15.00 15.00 17.00 15.00 16.00 17.00 15.00 17.00 17.00 15.00 18.00 17.00 15.00 19.00 17.00 15.00 20.00 17.00 15.00 21.00 17.00 15.00 22.00 17.00 15.00 23.00 17.00 15.00 24.00 17.00 15.00 25.00 17.00 15.00 26.00 17.00 15.00 12.00 18.00 15.00 13.00 18.00 15.00 14.00 18.00 15.00 15.00 18.00 15.00 16.00 18.00 15.00 17.00 18.00 15.00 18.00 18.00 15.00 19.00 18.00 15.00 20.00 18.00 15.00 21.00 18.00 15.00 22.00 18.00 15.00 23.00 18.00 15.00 24.00 18.00 15.00 25.00 18.00 15.00 26.00 18.00 15.00 12.00 19.00 15.00 13.00 19.00 15.00 14.00 19.00 15.00 15.00 19.00 15.00 16.00 19.00 15.00 17.00 19.00 15.00 18.00 19.00 15.00 19.00 19.00 15.00 20.00 19.00 15.00 21.00 19.00 15.00 22.00 19.00 15.00 23.00 19.00 15.00 24.00 19.00 15.00 25.00 19.00 15.00 26.00 19.00 15.00 12.00 20.00 15.00 13.00 20.00 15.00 14.00 20.00 15.00 15.00 20.00 15.00 16.00 20.00 15.00 17.00 20.00 15.00 18.00 20.00 15.00 19.00 20.00 15.00 20.00 20.00 15.00 21.00 20.00 15.00 22.00 20.00 15.00 23.00 20.00 15.00 24.00 20.00 15.00 25.00 20.00 15.00 26.00 20.00 15.00 12.00 21.00 15.00 13.00 21.00 15.00 14.00 21.00 15.00 15.00 21.00 15.00 16.00 21.00 15.00 17.00 21.00 15.00 18.00 21.00 15.00 19.00 21.00 15.00 20.00 21.00 15.00 21.00 21.00 15.00 22.00 21.00 15.00 23.00 21.00 15.00 24.00 21.00 15.00 25.00 21.00 15.00 26.00 21.00 15.00 13.00 22.00 15.00 14.00 22.00 15.00 15.00 22.00 15.00 16.00 22.00 15.00 17.00 22.00 15.00 18.00 22.00 15.00 19.00 22.00 15.00 20.00 22.00 15.00 21.00 22.00 15.00 22.00 22.00 15.00 23.00 22.00 15.00 24.00 22.00 15.00 25.00 22.00 15.00 26.00 22.00 15.00 13.00 23.00 15.00 14.00 23.00 15.00 15.00 23.00 15.00 16.00 23.00 15.00 17.00 23.00 15.00 18.00 23.00 15.00 19.00 23.00 15.00 20.00 23.00 15.00 21.00 23.00 15.00 22.00 23.00 15.00 23.00 23.00 15.00 24.00 23.00 15.00 25.00 23.00 15.00 26.00 23.00 15.00 14.00 24.00 15.00 15.00 24.00 15.00 16.00 24.00 15.00 17.00 24.00 15.00 18.00 24.00 15.00 19.00 24.00 15.00 20.00 24.00 15.00 21.00 24.00 15.00 22.00 24.00 15.00 23.00 24.00 15.00 24.00 24.00 15.00 25.00 24.00 15.00 26.00 24.00 15.00 15.00 25.00 15.00 16.00 25.00 15.00 17.00 25.00 15.00 18.00 25.00 15.00 19.00 25.00 15.00 20.00 25.00 15.00 21.00 25.00 15.00 22.00 25.00 15.00 23.00 25.00 15.00 24.00 25.00 15.00 25.00 25.00 15.00 17.00 26.00 15.00 18.00 26.00 15.00 19.00 26.00 15.00 20.00 26.00 15.00 21.00 26.00 15.00 22.00 26.00 15.00 23.00 26.00 15.00 24.00 26.00 15.00 19.00 11.00 16.00 16.00 1
[...]
POINT_DATA 7393
VECTORS vector_field float
-0.81 -1.64 -2.74 -1.19 -1.19 -2.21 -1.42 -1.85 -2.50 -1.42 -2.15 -2.93 -0.96 -2.68 -2.86 -0.87 -3.09 -2.39 -1.85 -1.42 -2.50 -2.13 -2.13 -2.49 -1.97 -2.07 -3.20 -0.99 -3.21 -3.06 -1.09 -3.98 -2.61 -1.64 -0.81 -2.74 -2.15 -1.42 -2.93 -2.07 -1.97 -3.20 -2.56 -2.56 -3.45 -2.28 -2.07 -3.30 -1.16 -4.80 -2.93 -0.89 -5.01 -2.52 -2.68 -0.96 -2.86 -3.21 -0.99 -3.06 -2.07 -2.28 -3.30 -4.04 -4.04 -3.24 -1.47 -3.58 -3.14 -3.09 -0.87 -2.39 -3.98 -1.09 -2.61 -4.80 -1.16 -2.93 -3.58 -1.47 -3.14 -2.05 -2.05 -3.35 -5.01 -0.89 -2.52 -0.31 -1.77 -2.64 -0.85 -1.95 -2.64 -1.07 -2.12 -2.61 -1.31 -2.18 -2.60 -0.89 -1.58 -2.81 -0.91 -0.91 -2.97 -1.43 -2.03 -2.28 -1.07 -2.82 -2.70 -1.22 -2.80 -2.93 -1.40 -1.84 -3.63 -1.64 -1.96 -3.61 -1.42 -2.17 -3.18 -1.77 -0.31 -2.64 -2.03 -1.43 -2.28 -1.96 -1.96 -2.85 -1.91 -3.43 -2.43 -1.56 -3.37 -3.04 -1.84 -2.74 -3.64 -1.68 -2.94 -3.65 -1.00 -3.15 -3.13 -1.22 -3.05 -3.23 -1.95 -0.85 -2.64 -2.82 -1.07 -2.70 -3.43 -1.91 -2.43 -2.30 -2.30 -3.21 -2.32 -3.79 -3.07 -2.76 -3.40 -3.63 -2.06 -3.84 -3.73 -1.25 -4.13 -3.23 -1.34 -3.97 -3.38 -2.12 -1.07 -2.61 -2.80 -1.22 -2.93 -3.37 -1.56 -3.04 -3.79 -2.32 -3.07 -3.30 -3.30 -3.23 -2.47 -2.65 -4.25 -1.58 -4.46 -4.25 -1.00 -5.08 -3.34 -1.55 -4.53 -4.01 -2.18 -1.31 -2.60 -1.84 -1.40 -3.63 -2.74 -1.84 -3.64 -3.40 -2.76 -3.63 -2.65 -2.47 -4.25 -4.19 -4.19 -3.86 -3.67 -3.59 -4.29 -1.39 -5.99 -3.63 -0.65 -3.21 -4.25 -1.58 -0.89 -2.81 -1.96 -1.64 -3.61 -2.94 -1.68 -3.65 -3.84 -2.06 -3.73 -4.46 -1.58 -4.25 -3.59 -3.67 -4.29 -4.68 -4.68 -4.52 -3.18 -5.19 -4.28 -3.31 -4.58 -4.07 -2.17 -1.42 -3.18 -3.15 -1.00 -3.13 -4.13 -1.25 -3.23 -5.08 -1.00 -3.34 -5.99 -1.39 -3.63 -5.19 -3.18 -4.28 -1.49 -1.49 -4.88 -3.05 -1.22 -3.23 -3.97 -1.34 -3.38 -4.53 -1.55 -4.01 -3.21 -0.65 -4.25 -4.58 -3.31 -4.07 -0.19 -1.25 -1.25 0.01 -0.91 -0.91 -0.69 -2.07 -2.07 -0.02 -1.87 -2.14 -1.21 -1.57 -2.36 -1.89 -1.64 -2.66 -0.16 -1.57 -3.51 -1.27 -2.21 -2.51 -1.89 -2.07 -2.89 -2.55 -1.76 -3.20 -1.20 -1.20 -2.26 -0.25 -2.56 -2.30 -1.27 -2.49 -2.38 -1.21 -1.98 -3.41 -1.43 -2.06 -3.62 -1.14 -2.41 -3.19 -0.72 -1.97 -3.79 -1.62 -2.29 -3.76 -1.16 -1.98 -3.77 -1.87 -0.02 -2.14 -2.56 -0.25 -2.30 -1.66 -1.66 -2.23 -1.20 -3.42 -2.52 -0.98 -2.87 -3.69 -1.64 -2.94 -3.73 -2.50 -2.91 -3.81 -2.72 -3.06 -3.80 -3.08 -0.91 -0.99 -3.61 -4.01 -3.26 -0.96 -2.91 -3.43 -1.57 -1.21 -2.36 -2.49 -1.27 -2.38 -3.42 -1.20 -2.52 -1.68 -1.69 0.94 -2.50 -2.21 -4.03 -1.61 -3.86 -3.82 -2.00 -2.78 -4.53 -1.75 -2.93 -4.65 -1.93 -3.14 -4.31 -2.04 -3.09 -3.77 -1.17 -3.16 -4.02 -1.25 -0.19 -1.25 -1.64 -1.89 -2.66 -1.98 -1.21 -3.40 -2.87 -0.98 -3.68 -2.22 -2.50 -4.03 -2.72 -2.72 -4.08 -3.27 -3.60 -4.04 -2.81 -4.07 -4.13 -2.55 -3.81 -4.64 -1.62 -4.14 -4.25 -1.53 -4.03 -4.32 -1.45 -3.27 -4.72 -1.20 -2.91 -4.46 -0.91 0.01 -0.91 -1.57 -0.16 -3.51 -2.06 -1.43 -3.61 -2.94 -1.64 -3.73 -3.86 -1.61 -3.82 -3.60 -3.27 -4.04 -3.67 -3.67 -4.12 -2.62 -4.87 -4.22 -1.54 -4.65 -5.22 -0.94 -5.05 -4.39 -1.57 -4.82 -4.78 -1.83 -3.38 -5.10 -1.32 -2.39 -4.89 -2.07 -0.69 -2.07 -2.21 -1.27 -2.51 -2.41 -1.14 -3.19 -2.90 -2.50 -3.81 -2.78 -2.00 -4.53 -4.07 -2.81 -4.13 -4.87 -2.62 -4.22 -4.67 -4.67 -4.12 -1.31 -5.03 -5.42 -1.08 -6.03 -4.52 -0.96 -3.67 -5.21 -1.30 -2.97 -5.20 -2.07 -1.89 -2.89 -1.97 -0.72 -3.79 -3.06 -2.72 -3.80 -2.93 -1.75 -4.65 -3.81 -2.55 -4.64 -4.65 -1.54 -5.22 -5.03 -1.31 -5.42 -4.92 -4.92 -5.36 -2.55 -5.74 -5.45 -2.42 -6.95 -4.73 -1.95 -4.48 -5.26 -1.76 -2.55 -3.20 -2.29 -1.62 -3.76 -0.92 -3.08 -0.99 -3.14 -1.93 -4.31 -4.14 -1.62 -4.25 -5.05 -0.94 -4.39 -6.03 -1.08 -4.52 -5.74 -2.55 -5.45 -1.50 -1.50 -5.89 -2.73 -7.82 -4.99 -3.18 -7.96 -4.75 -1.98 -1.16 -3.77 -4.01 -3.61 -3.26 -3.09 -2.04 -3.77 -4.03 -1.53 -4.32 -4.82 -1.57 -4.78 -3.67 -0.96 -5.21 -6.95 -2.42 -4.73 -7.82 -2.73 -4.99 -2.33 -2.33 -5.85 -2.91 -0.96 -3.43 -3.16 -1.17 -4.02 -3.27 -1.45 -4.72 -3.38 -1.83 -5.10 -2.97 -1.30 -5.20 -4.48 -1.95 -5.26 -7.96 -3.18 -4.75 -2.91 -1.20 -4.46 -2.39 -1.32 -4.89 -0.02 -2.14 -1.87 -1.21 -2.36 -1.57 -1.89 -2.66 -1.64 -0.16 -3.51 -1.57 -1.27 -2.51 -2.21 -1.89 -2.89 -2.07 -2.55 -3.20 -1.76 0.33 -2.57 -2.56 -0.60 -2.59 -2.59 -1.62 -2.58 -2.58 -2.61 -2.68 -2.68 -0.43 -2.16 -2.16 -0.86 -2.72 -2.72 -1.57 -3.10 -3.10 -2.54 -3.17 -3.17 -2.76 -3.40 -3.40 -2.56 0.33 -2.56 -1.48 -1.48 -1.90 -1.95 -1.58 -2.93 -1.11 -2.71 -3.29 -2.22 -2.57 -3.34 -3.62 -3.00 -3.95 -3.42 -0.69 -1.26 -1.92 -3.08 -3.88 -2.58 -2.66 -4.24 -3.36 -2.55 -4.36 -1.68 -3.76 -3.39 -2.14 -0.02 -1.87 -2.59 -0.60 -2.59 -1.58 -1.95 -2.93 -2.18 -2.18 -3.24 -1.91 -2.38 -2.71 -2.38 -3.68 -3.32 -1.68 -2.95 -4.71 -2.37 -3.05 -4.66 -1.80 -3.87 -4.07 -2.41 -3.44 -4.40 -3.26 -3.32 -4.50 -4.26 -3.40 -4.46 -2.52 -4.81 -3.37 -2.36 -1.21 -1.57 -2.58 -1.62 -2.58 -2.71 -1.11 -3.29 -2.38 -1.91 -2.71 -1.79 -1.79 -0.33 -1.67 -3.40 -4.06 -1.90 -3.76 -4.81 -2.67 -3.90 -4.76 -2.89 -2.84 -5.48 -1.88 -4.31 -4.68 -1.12 -3.06 -4.94 -2.17 -2.55 -4.59 -5.31 -4.46 -4.42 -2.66 -1.89 -1.64 -2.68 -2.61 -2.68 -2.57 -2.22 -3.34 -3.68 -2.38 -3.32 -3.40 -1.67 -4.06 -2.68 -2.68 -5.12 -1.73 -4.84 -4.80 -2.46 -4.02 -5.15 -2.75 -3.79 -5.60 -2.96 -3.90 -5.67 -3.68 -3.96 -5.62 -2.30 -4.04 -5.25 -2.34 -3.88 -5.22 -3.51 -0.16 -1.57 -2.16 -0.43 -2.16 -3.00 -3.62 -3.94 -2.95 -1.68 -4.71 -3.76 -1.92 -4.81 -4.84 -1.69 -4.81 -3.57 -3.58 -5.15 -2.56 -4.92 -5.20 -2.40 -4.81 -5.67 -2.82 -4.92 -5.66 -1.98 -5.12 -5.21 -2.44 -4.99 -5.38 -2.08 -4.47 -5.45 -2.51 -1.27 -2.21 -2.72 -0.86 -2.72 -0.69 -3.42 -1.26 -3.05 -2.37 -4.66 -3.90 -2.68 -4.76 -4.02 -2.47 -5.15 -4.92 -2.56 -5.20 -4.65 -4.65 -5.13 -1.59 -5.63 -6.21 -2.30 -6.04 -5.50 -1.69 -6.04 -5.34 -2.34 -5.92 -5.47 -2.10 -4.86 -5.77 -2.89 -1.89 -2.07 -3.10 -1.57 -3.10 -3.08 -1.92 -3.88 -3.87 -1.80 -4.07 -2.84 -2.89 -5.49 -3.79 -2.75 -5.60 -4.81 -2.40 -5.67 -5.63 -1.59 -6.21 -5.67 -5.67 -5.12 -2.38 -5.77 -6.47 -2.32 -6.97 -5.69 -2.06 -4.73 -6.22 -1.93 -3.76 -6.12 -3.20 -2.55 -1.76 -3.17 -2.54 -3.17 -2.66 -2.58 -4.24 -3.44 -2.41 -4.40 -4.31 -1.88 -4.68 -3.90 -2.96 -5.67 -4.92 -2.82 -5.66 -6.04 -2.30 -5.50 -5.77 -2.38 -6.47 -4.28 -4.28 -6.29 -2.78 -7.79 -6.05 -3.43 -7.90 -5.87 -2.51 -3.96 -6.38 -3.40 -2.76 -3.40 -2.55 -3.36 -4.36 -3.32 -3.26 -4.50 -3.06 -1.12 -4.94 -3.96 -3.68 -5.62 -5.12 -1.98 -5.21 -6.04 -1.69 -5.34 -6.97 -2.32 -5.69 -7.79 -2.78 -6.05 -2.34 -2.34 -6.85 -3.74 -8.78 -6.09 -3.76 -1.68 -3.39 -3.40 -4.26 -4.46 -2.55 -2.17 -4.59 -4.04 -2.30 -5.25 -4.99 -2.44 -5.38 -5.92 -2.34 -5.47 -4.73 -2.06 -6.22 -7.90 -3.43 -5.87 -8.78 -3.74 -6.09 -4.81 -2.52 -3.37 -4.46 -5.31 -4.42 -3.88 -2.34 -5.22 -4.47 -2.08 -5.45 -4.86 -2.10 -5.77 -3.76 -1.93 -6.12 -3.96 -2.51 -6.38 -0.31 -2.64 -1.77 -0.85 -2.64 -1.95 -1.07 -2.61 -2.12 -1.31 -2.60 -2.18 -0.89 -2.81 -1.58 -1.20 -2.26 -1.20 -0.25 -2.30 -2.56 -1.27 -2.38 -2.49 -1.21 -3.41 -1.98 -1.43 -3.61 -2.06 -1.14 -3.19 -2.41 -0.72 -3.79 -1.97 -1.62 -3.76 -2.29 -1.16 -3.77 -1.98 -2.56 -2.57 0.33 -1.47 -1.90 -1.47 -1.95 -2.94 -1.58 -1.11 -3.29 -2.71 -2.22 -3.34 -2.57 -3.62 -3.95 -3.00 -3.42 -1.26 -0.69 -1.92 -3.88 -3.08 -2.58 -4.24 -2.66 -3.36 -4.36 -2.55 -1.68 -3.39 -3.76 -2.26 -1.20 -1.20 -1.90 -1.47 -1.47 -1.90 -1.90 -1.90 -0.73 -3.53 -3.53 -0.93 -3.05 -3.05 -2.65 -3.69 -3.69 -3.47 -3.57 -3.57 -1.41 -3.16 -3.16 -1.55 -4.14 -4.14 -2.56 -4.13 -4.13 -3.57 -4.22 -4.22 -2.17 -4.16 -4.16 -1.46 -3.73 -3.73 -2.30 -0.25 -2.56 -2.94 -1.95 -1.58 -3.53 -0.73 -3.53 -1.06 -1.07 -2.14 -3.41 -2.60 -3.02 -2.19 -3.87 -4.11 -3.63 -3.87 -4.67 -0.93 -4.13 -4.83 -1.71 -4.28 -4.86 -2.65 -4.48 -4.79 -3.61 -4.01 -5.05 -4.57 -4.99 -4.46 -3.46 -3.93 -3.12 -2.64 -0.31 -1.77 -2.38 -1.27 -2.49 -3.29 -1.11 -2.71 -3.05 -0.92 -3.05 -2.60 -3.41 -3.02 -2.67 -2.67 -2.41 -3.15 -2.46 -3.00 -1.90 -3.89 -5.70 -2.68 -3.92 -5.74 -3.57 -3.92 -5.78 -2.23 -4.36 -5.49 -3.19 -4.28 -5.54 -4.26 -4.40 -5.46 -5.58 -5.41 -4.91 -2.65 -5.54 -3.97 -2.64 -0.85 -1.95 -3.40 -1.21 -1.98 -3.34 -2.22 -2.57 -3.69 -2.65 -3.69 -3.87 -2.19 -4.11 -2.46 -3.15 -3.00 -2.73 -2.73 -1.67 -3.43 -3.33 -6.10 -2.56 -4.88 -5.82 -2.55 -3.81 -6.63 -2.16 -5.28 -5.55 -3.19 -5.28 -5.54 -2.97 -2.97 -4.44 -3.34 -3.20 -5.29 -2.80 -6.09 -4.29 -2.61 -1.07 -2.12 -3.61 -1.43 -2.06 -3.94 -3.62 -3.00 -3.57 -3.47 -3.57 -3.87 -3.64 -4.68 -3.89 -1.90 -5.69 -3.34 -3.47 -6.07 -3.56 -3.56 -6.16 -3.04 -5.36 -6.00 -1.88 -4.92 -6.67 -1.20 -6.30 -5.84 -2.96 -5.12 -6.35 -2.56 -5.02 -6.34 -2.76 -4.91 -6.30 -2.46 -4.52 -6.19 -2.60 -1.31 -2.18 -3.19 -1.14 -2.41 -1.26 -3.42 -0.69 -3.16 -1.41 -3.16 -4.13 -0.93 -4.83 -3.92 -2.69 -5.74 -4.87 -2.57 -5.82 -5.36 -3.04 -6.00 -4.57 -4.58 -6.15 -1.41 -5.49 -7.29 -2.70 -5.94 -6.64 -1.90 -6.09 -6.26 -2.44 -5.98 -6.40 -2.50 -5.61 -6.53 -2.22 -5.11 -6.31 -2.81 -0.89 -1.58 -3.79 -0.72 -1.97 -3.88 -1.92 -3.08 -4.14 -1.55 -4.14 -4.27 -1.71 -4.86 -3.92 -3.57 -5.78 -3.81 -2.55 -6.63 -4.92 -1.88 -6.67 -5.49 -1.41 -7.29 -5.67 -5.67 -6.12 -1.57 -6.92 -6.78 -1.77 -7.04 -6.36 -2.44 -6.94 -6.47 -3.10 -6.78 -6.57 -2.09 -6.01 -6.33 -3.76 -1.62 -2.29 -4.24 -2.58 -2.66 -4.13 -2.56 -4.14 -4.47 -2.65 -4.79 -4.36 -2.23 -5.49 -5.28 -2.16 -5.55 -6.30 -1.20 -5.84 -5.94 -2.70 -6.64 -6.92 -1.57 -6.78 -6.14 -6.14 -7.16 -2.81 -7.81 -7.01 -2.38 -6.57 -7.18 -3.13 -6.81 -7.05 -1.99 -6.91 -6.35 -3.77 -1.16 -1.98 -4.36 -3.36 -2.55 -4.22 -3.57 -4.23 -4.01 -3.61 -5.05 -4.28 -3.19 -5.54 -5.28 -3.19 -5.54 -5.12 -2.96 -6.35 -6.10 -1.90 -6.26 -7.04 -1.77 -6.36 -7.81 -2.81 -7.01 -6.23 -6.23 -7.53 -3.41 -8.91 -6.85 -3.16 -6.62 -7.24 -2.01 -4.84 -7.14 -3.39 -1.68 -3.76 -4.16 -2.17 -4.16 -4.99 -4.57 -4.46 -4.40 -4.26 -5.46 -2.96 -2.97 -4.44 -5.02 -2.56 -6.34 -5.98 -2.44 -6.40 -6.94 -2.44 -6.47 -6.57 -2.38 -7.18 -8.91 -3.41 -6.85 -3.01 -3.01 -7.80 -3.15 -3.00 -7.53 -3.34 -3.20 -7.22 -3.73 -1.46 -3.73 -3.93 -3.46 -3.12 -5.41 -5.58 -4.91 -3.20 -3.34 -5.29 -4.91 -2.76 -6.30 -5.61 -2.50 -6.53 -6.78 -3.10 -6.57 -6.81 -3.13 -7.05 -6.62 -3.16 -7.24 -3.00 -3.15 -7.53 -3.67 -3.67 -7.59 -5.54 -2.65 -3.97 -6.09 -2.80 -4.29 -4.52 -2.46 -6.19 -5.11 -2.22 -6.31 -6.01 -2.09 -6.33 -6.91 -1.99 -6.35 -4.84 -2.01 -7.14 -3.20 -3.34 -7.22 -0.81 -2.74 -1.64 -0.91 -2.97 -0.91 -1.43 -2.28 -2.03 -1.07 -2.70 -2.82 -1.22 -2.93 -2.80 -1.40 -3.63 -1.84 -1.64 -3.61 -1.96 -1.42 -3.18 -2.17 -1.87 -2.14 -0.02 -2.56 -2.30 -0.25 -1.66 -2.22 -1.66 -1.20 -2.52 -3.42 -0.97 -3.69 -2.87 -1.64 -3.73 -2.94 -2.50 -3.81 -2.91 -2.72 -3.80 -3.06 -3.08 -0.99 -0.92 -3.61 -3.26 -4.01 -0.96 -3.43 -2.91 -2.14 -1.87 -0.02 -2.59 -2.59 -0.60 -1.58 -2.94 -1.95 -2.18 -3.25 -2.18 -1.90 -2.70 -2.38 -2.38 -3.32 -3.68 -1.68 -4.71 -2.95 -2.37 -4.66 -3.05 -1.80 -4.07 -3.87 -2.40 -4.40 -3.44 -3.26 -4.50 -3.32 -4.26 -4.46 -3.40 -2.52 -3.37 -4.81 -2.30 -2.56 -0.25 -2.93 -1.58 -1.95 -3.53 -3.53 -0.73 -1.06 -2.14 -1.07 -3.44 -3.04 -2.62 -2.19 -4.11 -3.87 -3.63 -4.67 -3.87 -0.93 -4.83 -4.13 -1.71 -4.86 -4.28 -2.65 -4.79 -4.47 -3.61 -5.05 -4.01 -4.57 -4.46 -4.99 -3.46 -3.12 -3.93 -2.97 -0.91 -0.91 -2.23 -1.66 -1.66 -3.24 -2.18 -2.18 -2.14 -1.06 -1.06 -2.95 -2.95 -2.95 -2.68 -2.66 -2.66 -2.35 -4.53 -4.53 -3.74 -4.84 -4.84 -4.05 -4.48 -4.48 -1.55 -5.19 -5.19 -2.58 -5.14 -5.14 -3.58 -5.25 -5.25 -4.58 -5.24 -5.24 -3.05 -5.21 -5.21 -2.85 -3.77 -3.77 -2.28 -1.43 -2.03 -2.52 -1.20 -3.42 -2.71 -1.91 -2.38 -3.02 -3.40 -2.59 -2.66 -2.68 -2.66 -2.44 -2.45 -2.98 -2.52 -2.16 -3.05 -4.19 -3.91 -4.05 -2.71 -3.93 -6.71 -1.70 -5.23 -5.89 -2.17 -4.29 -6.54 -3.19 -4.30 -6.52 -4.16 -4.32 -6.52 -4.78 -4.99 -6.18 -2.28 -5.52 -4.91 -2.70 -1.07 -2.82 -3.68 -0.98 -2.87 -3.32 -2.38 -3.68 -4.11 -2.19 -3.87 -4.51 -2.34 -4.51 -2.16 -2.53 -3.04 -2.51 -2.51 -1.75 -3.45 -2.58 -2.35 -2.71 -4.89 -6.76 -2.44 -3.83 -7.64 -2.17 -5.28 -6.55 -3.17 -5.28 -6.55 -4.11 -5.31 -6.56 -5.18 -5.33 -6.51 -6.47 -6.37 -6.04 -2.74 -0.81 -1.64 -2.93 -1.22 -2.80 -3.73 -1.64 -2.94 -4.71 -1.68 -2.95 -4.68 -3.63 -3.87 -4.84 -3.74 -4.84 -3.91 -4.20 -4.06 -2.58 -3.45 -2.35 -3.59 -3.59 -7.15 -2.95 -5.26 -7.05 -2.15 -4.86 -7.68 -2.18 -6.28 -6.55 -3.19 -6.29 -6.54 -3.06 -3.96 -5.53 -3.00 -4.99 -7.24 -3.82 -5.11 -6.88 -2.36 -5.92 -5.99 -3.63 -1.40 -1.84 -3.81 -2.50 -2.90 -4.66 -2.37 -3.05 -4.83 -0.92 -4.13 -4.48 -4.06 -4.48 -3.93 -2.72 -6.71 -4.89 -2.72 -6.76 -5.26 -2.95 -7.05 -4.57 -4.57 -7.15 -1.67 -5.65 -8.15 -2.78 -5.93 -7.65 -3.12 -7.30 -6.56 -3.20 -7.71 -6.67 -3.12 -5.73 -7.64 -2.64 -6.58 -6.67 -2.15 -6.18 -6.36 -3.61 -1.64 -1.96 -3.80 -2.72 -3.06 -4.07 -1.80 -3.87 -4.86 -1.71 -4.28 -5.18 -1.55 -5.19 -5.23 -1.70 -5.89 -3.83 -2.43 -7.64 -4.86 -2.15 -7.68 -5.65 -1.67 -8.15 -5.65 -5.65 -7.13 -2.72 -6.86 -7.78 -3.84 -6.92 -7.66 -3.27 -8.29 -6.83 -3.01 -6.69 -7.64 -2.27 -5.92 -7.48 -2.49 -6.51 -6.94 -3.18 -1.42 -2.17 -0.99 -3.08 -0.92 -4.40 -2.41 -3.44 -4.79 -2.65 -4.48 -5.14 -2.58 -5.14 -4.29 -2.17 -6.54 -5.28 -2.17 -6.55 -6.28 -2.18 -6.55 -5.93 -2.78 -7.65 -6.86 -2.72 -7.78 -6.56 -6.57 -7.15 -2.41 -8.08 -7.38 -2.72 -7.36 -8.14 -3.23 -7.68 -7.74 -2.18 -6.89 -7.45 -2.86 -7.23 -7.12 -2.55 -6.02 -7.02 -3.26 -3.61 -4.01 -4.50 -3.26 -3.32 -5.05 -3.61 -4.01 -5.25 -3.58 -5.25 -4.30 -3.19 -6.52 -5.28 -3.17 -6.55 -6.29 -3.19 -6.54 -7.30 -3.12 -6.56 -6.92 -3.84 -7.66 -8.08 -2.41 -7.38 -7.56 -7.57 -7.15 -2.72 -8.31 -8.15 -3.28 -7.18 -8.21 -2.91 -5.72 -8.11 -2.83 -7.81 -7.35 -0.80 -3.31 -6.30 -3.43 -0.96 -2.91 -4.46 -4.26 -3.40 -4.45 -4.57 -4.99 -5.24 -4.58 -5.24 -4.32 -4.16 -6.52 -5.31 -4.11 -6.56 -3.97 -3.06 -5.52 -7.71 -3.20 -6.67 -8.29 -3.27 -6.83 -7.36 -2.72 -8.14 -8.31 -2.72 -8.15 -8.20 -8.20 -7.85 -3.20 -3.86 -8.65 -3.49 -4.12 -8.41 -3.74 -3.32 -7.95 -3.37 -2.52 -4.80 -3.12 -3.46 -3.93 -5.21 -3.05 -5.21 -4.99 -4.78 -6.18 -5.33 -5.18 -6.51 -4.99 -3.00 -7.24 -5.73 -3.12 -7.64 -6.69 -3.01 -7.63 -7.68 -3.23 -7.74 -7.18 -3.28 -8.21 -3.86 -3.20 -8.65 -3.80 -3.80 -8.68 -3.73 -3.55 -8.15 -2.89 -2.38 -7.31 -3.77 -2.85 -3.77 -5.52 -2.28 -4.91 -6.37 -6.47 -6.04 -5.10 -3.82 -6.88 -6.58 -2.64 -6.67 -5.92 -2.27 -7.48 -6.89 -2.18 -7.45 -5.72 -2.91 -8.11 -4.12 -3.49 -8.41 -3.55 -3.73 -8.15 -3.64 -3.64 -7.32 -5.92 -2.36 -5.99 -6.18 -2.15 -6.36 -6.51 -2.49 -6.94 -7.23 -2.86 -7.12 -7.81 -2.83 -7.35 -3.32 -3.74 -7.95 -2.38 -2.89 -7.31 -6.02 -2.55 -7.02 -3.31 -0.80 -6.30 -1.19 -2.21 -1.19 -1.42 -2.50 -1.85 -1.42 -2.93 -2.15 -0.96 -2.86 -2.68 -0.87 -2.39 -3.09 -1.77 -2.64 -0.31 -2.03 -2.28 -1.43 -1.96 -2.85 -1.96 -1.91 -2.43 -3.43 -1.56 -3.04 -3.37 -1.84 -3.64 -2.74 -1.68 -3.65 -2.94 -1.00 -3.13 -3.15 -1.22 -3.23 -3.05 -1.57 -2.36 -1.21 -2.49 -2.38 -1.27 -3.42 -2.52 -1.20 -1.69 0.94 -1.69 -2.50 -4.03 -2.21 -1.61 -3.82 -3.86 -2.00 -4.53 -2.78 -1.75 -4.65 -2.93 -1.93 -4.31 -3.14 -2.04 -3.77 -3.09 -1.17 -4.02 -3.16 -2.36 -1.57 -1.21 -2.58 -2.58 -1.62 -2.71 -3.29 -1.10 -2.38 -2.71 -1.91 -1.79 -0.34 -1.79 -1.67 -4.06 -3.40 -1.90 -4.81 -3.76 -2.67 -4.76 -3.90 -2.89 -5.49 -2.84 -1.88 -4.68 -4.31 -1.12 -4.94 -3.06 -2.17 -4.59 -2.55 -5.31 -4.42 -4.46 -2.64 -1.77 -0.31 -2.38 -2.49 -1.27 -3.29 -2.71 -1.10 -3.05 -3.05 -0.92 -2.62 -3.04 -3.44 -2.68 -2.42 -2.68 -3.15 -3.00 -2.46 -1.90 -5.70 -3.89 -2.68 -5.74 -3.92 -3.57 -5.78 -3.92 -2.23 -5.49 -4.36 -3.19 -5.54 -4.28 -4.26 -5.46 -4.40 -5.58 -4.91 -5.41 -2.65 -3.97 -5.54 -2.28 -2.03 -1.43 -2.52 -3.42 -1.20 -2.72 -2.38 -1.91 -3.02 -2.60 -3.41 -2.66 -2.66 -2.68 -2.49 -3.00 -2.49 -2.52 -3.05 -2.16 -4.19 -4.06 -3.92 -2.71 -6.71 -3.93 -1.70 -5.89 -5.23 -2.17 -6.54 -4.29 -3.19 -6.52 -4.30 -4.16 -6.52 -4.32 -4.78 -6.18 -4.99 -2.28 -4.91 -5.52 -2.21 -1.19 -1.19 -2.84 -1.96 -1.96 0.93 -1.69 -1.69 -0.34 -1.79 -1.79 -2.41 -2.67 -2.67 -3.00 -2.48 -2.48 -3.53 -3.53 -3.53 -2.85 -3.30 -3.30 -3.39 -5.15 -5.15 -0.57 -6.19 -6.19 -1.56 -6.15 -6.15 -2.57 -6.19 -6.19 -3.57 -6.16 -6.16 -4.55 -6.28 -6.28 -5.60 -6.14 -6.14 -3.45 -4.15 -4.15 -3.59 -5.54 -5.54 -2.50 -1.42 -1.85 -2.43 -1.91 -3.43 -4.03 -2.50 -2.22 -4.06 -1.66 -3.40 -3.00 -3.15 -2.46 -3.02 -2.55 -2.14 -3.30 -2.86 -3.30 -4.13 -4.15 -3.31 -2.49 -3.67 -4.09 -4.76 -5.44 -6.02 -1.65 -6.13 -6.97 -2.17 -5.29 -7.54 -3.18 -5.29 -7.53 -3.98 -5.32 -7.62 -5.52 -6.07 -7.06 -2.42 -6.49 -5.96 -3.18 -6.47 -5.91 -2.93 -1.42 -2.15 -3.04 -1.56 -3.37 -3.82 -1.61 -3.86 -4.81 -1.92 -3.76 -5.69 -1.90 -3.89 -4.05 -4.20 -3.91 -5.16 -3.39 -5.16 -3.68 -2.49 -4.09 -3.85 -3.85 -4.08 -4.60 -3.64 -8.13 -3.05 -4.83 -8.44 -3.32 -4.84 -8.66 -4.02 -7.20 -6.72 -4.52 -6.16 -7.63 -5.78 -6.34 -7.59 -2.63 -6.17 -7.14 -2.58 -6.68 -6.49 -2.59 -6.45 -6.16 -2.86 -0.96 -2.68 -3.64 -1.84 -2.74 -4.53 -2.00 -2.78 -4.76 -2.68 -3.90 -5.74 -2.69 -3.92 -6.71 -2.72 -3.93 -6.20 -0.57 -6.20 -5.46 -4.78 -6.03 -3.64 -4.61 -8.13 -4.58 -4.59 -8.15 -5.56 -4.58 -8.17 -4.77 -6.89 -7.74 -3.10 -7.30 -7.56 -3.86 -7.32 -7.68 -5.65 -7.69 -7.21 -3.13 -6.13 -8.03 -2.16 -6.66 -7.08 -2.69 -6.75 -6.81 -2.39 -0.87 -3.09 -3.65 -1.68 -2.94 -4.65 -1.75 -2.93 -5.49 -2.89 -2.84 -5.78 -3.57 -3.92 -5.89 -1.70 -5.23 -6.15 -1.56 -6.15 -6.12 -1.65 -6.97 -4.82 -3.06 -8.45 -4.58 -5.56 -8.17 -5.65 -5.65 -8.15 -2.80 -6.92 -8.67 -2.82 -8.31 -7.71 -4.00 -8.31 -7.62 -4.25 -8.29 -7.83 -3.55 -6.89 -8.26 -2.28 -7.41 -7.25 -1.94 -6.78 -6.83 -3.13 -1.00 -3.15 -4.31 -1.93 -3.14 -4.68 -1.88 -4.31 -5.49 -2.23 -4.36 -6.54 -2.17 -4.29 -6.19 -2.57 -6.19 -5.29 -2.17 -7.54 -4.84 -3.32 -8.66 -6.89 -4.78 -7.74 -6.92 -2.80 -8.67 -6.54 -6.55 -8.17 -2.26 -9.35 -7.81 -4.02 -9.31 -7.61 -3.26 -7.86 -8.53 -3.76 -7.48 -8.72 -3.03 -7.11 -8.21 -1.88 -6.89 -7.31 -1.55 -5.42 -6.92 -3.23 -1.22 -3.05 -3.77 -2.04 -3.09 -4.94 -1.12 -3.06 -5.54 -3.19 -4.28 -6.52 -3.19 -4.30 -6.16 -3.57 -6.17 -5.29 -3.18 -7.53 -7.20 -4.02 -6.72 -7.30 -3.11 -7.56 -8.31 -2.82 -7.71 -9.35 -2.26 -7.81 -7.56 -7.57 -8.15 -3.14 -10.35 -7.83 -3.30 -8.59 -8.87 -4.20 -8.73 -8.67 -2.94 -7.99 -8.26 -2.84 -7.68 -7.92 -4.02 -1.17 -3.16 -4.59 -2.17 -2.56 -5.46 -4.26 -4.40 -6.52 -4.16 -4.32 -6.27 -4.55 -6.28 -5.32 -3.98 -7.62 -6.16 -4.52 -7.63 -7.32 -3.86 -7.68 -8.31 -4.00 -7.62 -9.31 -4.02 -7.61 -10.36 -3.14 -7.83 -8.57 -8.56 -8.15 -3.43 -8.95 -9.12 -4.29 -9.46 -8.93 -3.29 -6.64 -9.05 -1.93 -5.24 -8.17 -4.42 -5.31 -4.46 -4.91 -5.57 -5.41 -6.18 -4.78 -4.99 -6.14 -5.60 -6.14 -6.07 -5.52 -7.06 -6.34 -5.79 -7.59 -7.67 -5.65 -7.22 -8.29 -4.25 -7.83 -7.86 -3.26 -8.53 -8.59 -3.30 -8.87 -8.95 -3.43 -9.12 -3.89 -3.89 -9.74 -4.46 -3.72 -9.53 -4.39 -3.77 -9.06 -1.14 -2.81 -6.72 -3.97 -2.65 -5.54 -4.91 -2.28 -5.52 -4.15 -3.45 -4.15 -6.49 -2.42 -5.96 -6.17 -2.63 -7.14 -6.12 -3.14 -8.04 -6.89 -3.55 -8.26 -7.48 -3.76 -8.72 -8.73 -4.20 -8.67 -9.46 -4.29 -8.93 -3.72 -4.46 -9.53 -4.01 -4.01 -8.96 -4.82 -3.92 -8.72 -5.54 -3.59 -5.54 -6.47 -3.18 -5.91 -6.68 -2.58 -6.49 -6.66 -2.16 -7.08 -7.41 -2.28 -7.25 -7.11 -3.03 -8.21 -7.99 -2.94 -8.26 -6.64 -3.29 -9.05 -3.77 -4.39 -9.06 -3.92 -4.82 -8.72 -5.16 -5.16 -9.15 -6.45 -2.59 -6.16 -6.75 -2.69 -6.81 -6.78 -1.94 -6.83 -6.89 -1.88 -7.31 -7.68 -2.84 -7.92 -5.24 -1.93 -8.17 -2.81 -1.14 -6.72 -5.42 -1.55 -6.92 -1.85 -2.50 -1.42 -2.13 -2.49 -2.13 -1.97 -3.20 -2.07 -0.99 -3.06 -3.21 -1.09 -2.61 -3.98 -1.95 -2.64 -0.85 -2.82 -2.70 -1.07 -3.43 -2.43 -1.91 -2.30 -3.21 -2.30 -2.32 -3.07 -3.79 -2.76 -3.63 -3.40 -2.06 -3.73 -3.84 -1.25 -3.23 -4.13 -1.34 -3.38 -3.97 -1.25 -1.25 -0.19 -1.64 -2.66 -1.89 -1.98 -3.41 -1.21 -2.87 -3.69 -0.97 -2.21 -4.03 -2.50 -2.71 -4.08 -2.71 -3.27 -4.04 -3.60 -2.81 -4.13 -4.07 -2.55 -4.64 -3.81 -1.62 -4.25 -4.14 -1.53 -4.32 -4.03 -1.45 -4.72 -3.27 -1.20 -4.46 -2.91 -2.66 -1.64 -1.89 -2.68 -2.68 -2.61 -2.57 -3.34 -2.22 -3.68 -3.32 -2.38 -3.40 -4.06 -1.67 -2.67 -5.12 -2.67 -1.73 -4.80 -4.84 -2.46 -5.15 -4.02 -2.75 -5.60 -3.79 -2.96 -5.67 -3.90 -3.68 -5.62 -3.96 -2.30 -5.25 -4.04 -2.34 -5.22 -3.88 -2.64 -1.95 -0.85 -3.41 -1.98 -1.21 -3.34 -2.57 -2.22 -3.69 -3.69 -2.65 -3.87 -4.11 -2.19 -2.46 -3.00 -3.15 -2.73 -1.67 -2.73 -3.43 -6.10 -3.33 -2.56 -5.82 -4.88 -2.55 -6.63 -3.81 -2.16 -5.55 -5.28 -3.19 -5.54 -5.28 -2.97 -4.44 -2.96 -3.34 -5.29 -3.20 -2.80 -4.30 -6.09 -2.70 -2.82 -1.07 -3.69 -2.87 -0.98 -3.31 -3.68 -2.38 -4.11 -3.87 -2.19 -4.51 -4.51 -2.34 -2.16 -3.05 -2.52 -2.51 -1.75 -2.50 -3.45 -2.34 -2.58 -2.71 -6.76 -4.89 -2.44 -7.64 -3.83 -2.17 -6.55 -5.28 -3.17 -6.55 -5.28 -4.11 -6.56 -5.31 -5.18 -6.51 -5.33 -6.47 -6.04 -6.37 -2.50 -1.85 -1.42 -2.43 -3.43 -1.91 -4.03 -2.21 -2.50 -4.06 -3.40 -1.67 -2.99 -2.46 -3.15 -3.02 -2.14 -2.55 -3.30 -3.30 -2.86 -4.13 -3.31 -4.15 -2.49 -4.08 -3.67 -4.76 -6.02 -5.44 -1.65 -6.97 -6.13 -2.17 -7.54 -5.29 -3.18 -7.53 -5.29 -3.98 -7.62 -5.32 -5.52 -7.07 -6.07 -2.42 -5.96 -6.49 -